REMARK  7 active torsions:
REMARK  status: ('A' for Active; 'I' for Inactive)
REMARK    1  A    between atoms: C2_2  and  N1_4 
REMARK       I    between atoms: N1_4  and  C4_5 
REMARK    2  A    between atoms: C4_5  and  C5_7 
REMARK    3  A    between atoms: C5_7  and  C6_8 
REMARK    4  A    between atoms: C9_12  and  C10_13 
REMARK    5  A    between atoms: C10_13  and  N2_14 
REMARK    6  A    between atoms: N2_14  and  C11_15 
REMARK    7  A    between atoms: C17_22  and  O3_23 
ROOT
ATOM      1  C6  UNK     1      17.077   9.871 -17.253  1.00  0.00     0.133 C 
ATOM      2  C7  UNK     1      17.611  10.884 -16.304  1.00  0.00     0.067 C 
ATOM      3  C8  UNK     1      18.995  10.389 -15.959  1.00  0.00     0.156 C 
ATOM      4  O2  UNK     1      19.114  10.091 -14.624  1.00  0.00    -0.373 OA
ATOM      5  C9  UNK     1      19.574   8.808 -14.467  1.00  0.00     0.181 C 
ATOM      6  C17 UNK     1      18.948   8.075 -15.637  1.00  0.00     0.180 C 
ATOM      7  C18 UNK     1      19.118   9.120 -16.734  1.00  0.00     0.182 C 
ATOM      8  O4  UNK     1      18.111   9.065 -17.667  1.00  0.00    -0.375 OA
ENDROOT
BRANCH   5   9
ATOM      9  C10 UNK     1      21.065   8.709 -14.624  1.00  0.00     0.304 C 
BRANCH   9  10
ATOM     10  N2  UNK     1      21.756   9.508 -13.669  1.00  0.00     0.090 N 
ATOM     11  H18 UNK     1      21.498   9.359 -12.688  1.00  0.00     0.316 HD
BRANCH  10  12
ATOM     12  C11 UNK     1      23.208   9.388 -13.857  1.00  0.00     0.223 C 
ATOM     13  C12 UNK     1      23.638   9.833 -15.206  1.00  0.00     0.055 C 
ATOM     14  C13 UNK     1      24.049   8.762 -16.152  1.00  0.00     0.118 C 
ATOM     15  N3  UNK     1      23.774   7.443 -15.785  1.00  0.00    -0.416 N 
ATOM     16  C14 UNK     1      22.989   6.647 -16.630  1.00  0.00     0.143 C 
ATOM     17  C15 UNK     1      23.947   7.047 -14.451  1.00  0.00     0.118 C 
ATOM     18  C16 UNK     1      23.740   8.072 -13.405  1.00  0.00     0.055 C 
ENDBRANCH  10  12
ENDBRANCH   9  10
ENDBRANCH   5   9
BRANCH   6  19
ATOM     19  O3  UNK     1      17.605   7.887 -15.332  1.00  0.00    -0.390 OA
ATOM     20  H32 UNK     1      17.324   8.419 -14.538  1.00  0.00     0.210 HD
ENDBRANCH   6  19
BRANCH   1  21
ATOM     21  C5  UNK     1      16.374  10.548 -18.423  1.00  0.00     0.134 C 
BRANCH  21  22
ATOM     22  C4  UNK     1      15.838   9.543 -19.376  1.00  0.00     0.220 C 
ATOM     23  N1  UNK     1      15.150   9.962 -20.529  1.00  0.00    -0.357 N 
ATOM     24  H8  UNK     1      15.026  10.984 -20.698  1.00  0.00     0.162 HD
ATOM     25  O1  UNK     1      15.999   8.314 -19.152  1.00  0.00    -0.274 OA
BRANCH  23  26
ATOM     26  C2  UNK     1      14.600   9.008 -21.502  1.00  0.00     0.076 C 
ATOM     27  C1  UNK     1      13.122   9.166 -21.654  1.00  0.00     0.032 C 
ATOM     28  C3  UNK     1      15.314   9.183 -22.846  1.00  0.00     0.032 C 
ENDBRANCH  23  26
ENDBRANCH  21  22
ENDBRANCH   1  21
TORSDOF 7
