REMARK  1 active torsions:
REMARK  status: ('A' for Active; 'I' for Inactive)
REMARK    1  A    between atoms: C1_2  and  C2_3 
REMARK       I    between atoms: C1_2  and  N3_11 
ROOT
ATOM      1  O1  UNK     1      20.962   7.805 -16.465  1.00  0.00    -0.266 OA
ATOM      2  C1  UNK     1      20.103   7.954 -15.573  1.00  0.00     0.275 C 
ATOM      3  N3  UNK     1      19.216   9.043 -15.623  1.00  0.00    -0.338 N 
ATOM      4  C8  UNK     1      18.244   9.144 -14.520  1.00  0.00     0.127 C 
ATOM      5  C9  UNK     1      16.842   9.326 -14.974  1.00  0.00     0.024 C 
ATOM      6  C10 UNK     1      16.631   9.562 -16.427  1.00  0.00     0.037 C 
ATOM      7  C11 UNK     1      17.713  10.418 -16.964  1.00  0.00    -0.060 C 
ATOM      8  C12 UNK     1      17.516  11.439 -17.762  1.00  0.00    -0.015 C 
ATOM      9  C13 UNK     1      18.494  11.770 -18.814  1.00  0.00     0.042 C 
ATOM     10  C14 UNK     1      19.905  11.474 -18.344  1.00  0.00     0.019 C 
ATOM     11  C15 UNK     1      19.940  10.025 -17.803  1.00  0.00     0.042 C 
ATOM     12  C16 UNK     1      19.492   9.140 -18.897  1.00  0.00     0.280 C 
ATOM     13  N4  UNK     1      18.296   9.471 -19.589  1.00  0.00     0.094 N 
ATOM     14  C17 UNK     1      18.294   8.680 -20.831  1.00  0.00     0.273 C 
ATOM     15  C18 UNK     1      17.369   9.289 -21.859  1.00  0.00     0.030 C 
ATOM     16  C19 UNK     1      18.000  10.570 -22.391  1.00  0.00     0.004 C 
ATOM     17  C20 UNK     1      18.811  11.212 -21.257  1.00  0.00     0.036 C 
ATOM     18  C21 UNK     1      18.133  10.839 -19.981  1.00  0.00     0.230 C 
ATOM     19  C22 UNK     1      19.111  10.084 -16.573  1.00  0.00     0.122 C 
ENDROOT
BRANCH   2  20
ATOM     20  C2  UNK     1      20.084   6.955 -14.512  1.00  0.00     0.152 A 
ATOM     21  N1  UNK     1      19.071   6.124 -14.165  1.00  0.00    -0.169 NA
ATOM     22  N2  UNK     1      19.428   5.355 -13.152  1.00  0.00    -0.281 N 
ATOM     23  C3  UNK     1      20.701   5.638 -12.774  1.00  0.00     0.036 A 
ATOM     24  H1  UNK     1      18.806   4.640 -12.719  1.00  0.00     0.189 HD
ATOM     25  C4  UNK     1      21.111   6.640 -13.626  1.00  0.00     0.002 A 
ATOM     26  C7  UNK     1      21.786   5.280 -11.809  1.00  0.00     0.059 C 
ATOM     27  C5  UNK     1      22.521   7.036 -13.296  1.00  0.00     0.043 C 
ATOM     28  C6  UNK     1      23.011   5.846 -12.496  1.00  0.00     0.011 C 
ENDBRANCH   2  20
TORSDOF 1
