REMARK  6 active torsions:
REMARK  status: ('A' for Active; 'I' for Inactive)
REMARK    1  A    between atoms: O1_2  and  C2_3 
REMARK    2  A    between atoms: C2_3  and  C3_4 
REMARK    3  A    between atoms: C5_6  and  N1_7 
REMARK    4  A    between atoms: C7_9  and  N2_10 
REMARK    5  A    between atoms: N2_10  and  S1_11 
REMARK       I    between atoms: N4_18  and  C11_19 
REMARK       I    between atoms: C11_19  and  N5_21 
REMARK    6  A    between atoms: N5_21  and  C12_22 
ROOT
ATOM      1  C3  UNK     1      -2.353  -0.166  -2.307  1.00  0.00     0.114 C 
ATOM      2  C4  UNK     1      -0.903  -0.282  -1.886  1.00  0.00     0.056 C 
ATOM      3  C5  UNK     1      -0.428   1.131  -2.204  1.00  0.00     0.129 C 
ATOM      4  C10 UNK     1      -1.625   1.974  -1.871  1.00  0.00     0.155 C 
ATOM      5  N4  UNK     1      -2.738   1.071  -1.655  1.00  0.00    -0.325 N 
ATOM      6  C11 UNK     1      -3.916   1.393  -0.950  1.00  0.00     0.319 C 
ATOM      7  O4  UNK     1      -4.859   0.550  -0.796  1.00  0.00    -0.247 OA
ATOM      8  N5  UNK     1      -4.100   2.661  -0.386  1.00  0.00    -0.338 N 
ATOM      9  H18 UNK     1      -3.321   3.369  -0.509  1.00  0.00     0.164 HD
ENDROOT
BRANCH   3  10
ATOM     10  N1  UNK     1       0.748   1.487  -1.434  1.00  0.00    -0.273 N 
ATOM     11  C6  UNK     1       1.586   2.474  -1.788  1.00  0.00     0.144 A 
ATOM     12  C7  UNK     1       2.600   2.549  -0.839  1.00  0.00     0.078 A 
ATOM     13  C9  UNK     1       2.325   1.573   0.080  1.00  0.00     0.170 A 
ATOM     14  N3  UNK     1       1.191   0.960  -0.329  1.00  0.00    -0.182 NA
BRANCH  12  15
ATOM     15  N2  UNK     1       3.650   3.491  -0.923  1.00  0.00    -0.282 N 
ATOM     16  H11 UNK     1       3.420   4.474  -1.152  1.00  0.00     0.178 HD
BRANCH  15  17
ATOM     17  S1  UNK     1       5.263   3.009  -0.650  1.00  0.00     0.227 S 
ATOM     18  C8  UNK     1       5.430   2.398   0.993  1.00  0.00     0.186 C 
ATOM     19  O2  UNK     1       6.223   4.162  -0.849  1.00  0.00    -0.206 OA
ATOM     20  O3  UNK     1       5.707   1.925  -1.591  1.00  0.00    -0.206 OA
ENDBRANCH  15  17
ENDBRANCH  12  15
ENDBRANCH   3  10
BRANCH   1  21
ATOM     21  C2  UNK     1      -3.179  -1.332  -1.924  1.00  0.00     0.192 C 
BRANCH  21  22
ATOM     22  O1  UNK     1      -2.736  -2.463  -2.583  1.00  0.00    -0.394 OA
ATOM     23  C1  UNK     1      -2.787  -2.397  -3.962  1.00  0.00     0.201 C 
ENDBRANCH  21  22
ENDBRANCH   1  21
BRANCH   8  24
ATOM     24  C12 UNK     1      -5.259   3.085   0.348  1.00  0.00     0.086 C 
ATOM     25  C13 UNK     1      -4.971   3.447   1.777  1.00  0.00     0.025 C 
ATOM     26  C14 UNK     1      -6.133   4.397   2.088  1.00  0.00     0.002 C 
ATOM     27  C15 UNK     1      -6.097   5.297   0.855  1.00  0.00     0.002 C 
ATOM     28  C16 UNK     1      -5.980   4.243  -0.254  1.00  0.00     0.025 C 
ENDBRANCH   8  24
TORSDOF 6
