REMARK  5 active torsions:
REMARK  status: ('A' for Active; 'I' for Inactive)
REMARK    1  A    between atoms: C3_3  and  C4_4 
REMARK    2  A    between atoms: C4_4  and  O2_6 
REMARK    3  A    between atoms: O2_6  and  C5_7 
REMARK    4  A    between atoms: C5_7  and  C6_8 
REMARK    5  A    between atoms: C10_13  and  C11_14 
ROOT
ATOM      1  C1  UNK     1      20.749   6.857 -15.409  1.00  0.00     0.069 C 
ATOM      2  C2  UNK     1      20.247   7.194 -16.795  1.00  0.00     0.018 A 
ATOM      3  C3  UNK     1      19.383   8.145 -17.000  1.00  0.00     0.052 A 
ATOM      4  C10 UNK     1      18.867   8.485 -18.356  1.00  0.00     0.104 A 
ATOM      5  C20 UNK     1      19.454   7.684 -19.416  1.00  0.00     0.024 A 
ATOM      6  C21 UNK     1      20.342   6.713 -19.174  1.00  0.00     0.020 A 
ATOM      7  C22 UNK     1      20.835   5.993 -20.398  1.00  0.00     0.058 C 
ATOM      8  C23 UNK     1      19.608   5.564 -21.172  1.00  0.00     0.014 C 
ATOM      9  C24 UNK     1      18.900   6.763 -21.785  1.00  0.00     0.084 C 
ATOM     10  C25 UNK     1      19.107   7.907 -20.826  1.00  0.00     0.158 C 
ATOM     11  O6  UNK     1      18.987   9.099 -21.209  1.00  0.00    -0.293 OA
ATOM     12  N1  UNK     1      20.770   6.428 -17.881  1.00  0.00    -0.362 N 
ATOM     13  H25 UNK     1      21.467   5.660 -17.717  1.00  0.00     0.165 HD
ENDROOT
BRANCH   4  14
ATOM     14  C11 UNK     1      18.943   9.956 -18.576  1.00  0.00     0.029 A 
ATOM     15  C12 UNK     1      20.088  10.685 -18.296  1.00  0.00     0.154 A 
ATOM     16  O4  UNK     1      20.147  11.984 -18.506  1.00  0.00    -0.321 OA
ATOM     17  C13 UNK     1      19.110  12.658 -18.998  1.00  0.00     0.089 A 
ATOM     18  C14 UNK     1      19.186  14.023 -19.215  1.00  0.00     0.038 A 
ATOM     19  C18 UNK     1      17.927  12.019 -19.308  1.00  0.00     0.048 A 
ATOM     20  C15 UNK     1      18.120  14.737 -19.724  1.00  0.00     0.003 A 
ATOM     21  C16 UNK     1      16.936  14.104 -20.035  1.00  0.00     0.001 A 
ATOM     22  C17 UNK     1      16.855  12.740 -19.821  1.00  0.00     0.018 A 
ATOM     23  C19 UNK     1      17.870  10.658 -19.085  1.00  0.00     0.194 A 
ATOM     24  O5  UNK     1      16.765  10.099 -19.379  1.00  0.00    -0.287 OA
ENDBRANCH   4  14
BRANCH   3  25
ATOM     25  C4  UNK     1      18.877   8.921 -15.856  1.00  0.00     0.292 C 
ATOM     26  O1  UNK     1      18.045   9.832 -16.083  1.00  0.00    -0.259 OA
BRANCH  25  27
ATOM     27  O2  UNK     1      19.290   8.671 -14.563  1.00  0.00    -0.315 OA
BRANCH  27  28
ATOM     28  C5  UNK     1      18.765   9.452 -13.527  1.00  0.00     0.211 C 
BRANCH  28  29
ATOM     29  C6  UNK     1      19.280   9.099 -12.171  1.00  0.00     0.145 C 
ATOM     30  C7  UNK     1      19.052   7.659 -11.772  1.00  0.00     0.036 C 
ATOM     31  C8  UNK     1      20.002   7.563 -10.569  1.00  0.00     0.029 C 
ATOM     32  C9  UNK     1      21.093   8.519 -10.997  1.00  0.00     0.168 C 
ATOM     33  O3  UNK     1      20.644   9.231 -12.079  1.00  0.00    -0.384 OA
ENDBRANCH  28  29
ENDBRANCH  27  28
ENDBRANCH  25  27
ENDBRANCH   3  25
TORSDOF 5
