REMARK  4 active torsions:
REMARK  status: ('A' for Active; 'I' for Inactive)
REMARK    1  A    between atoms: C5_5  and  C6_6 
REMARK    2  A    between atoms: C8_9  and  C9_10 
REMARK    3  A    between atoms: N2_15  and  C13_16 
REMARK    4  A    between atoms: C13_16  and  C14_17 
ROOT
ATOM      1  C14 UNK     1      19.290  12.253 -18.832  1.00  0.00    -0.039 A 
ATOM      2  C15 UNK     1      18.545  12.952 -17.877  1.00  0.00     0.009 A 
ATOM      3  C16 UNK     1      17.986  14.172 -18.168  1.00  0.00     0.002 A 
ATOM      4  C17 UNK     1      18.129  14.767 -19.403  1.00  0.00     0.021 A 
ATOM      5  C18 UNK     1      18.869  14.078 -20.358  1.00  0.00     0.031 A 
ATOM      6  C19 UNK     1      19.052  14.614 -21.632  1.00  0.00     0.019 C 
ATOM      7  N3  UNK     1      19.228  15.093 -22.739  1.00  0.00    -0.096 N 
ATOM      8  C20 UNK     1      19.435  12.840 -20.059  1.00  0.00     0.030 A 
ENDROOT
BRANCH   1   9
ATOM      9  C13 UNK     1      19.895  10.935 -18.461  1.00  0.00     0.156 C 
BRANCH   9  10
ATOM     10  N2  UNK     1      18.908   9.925 -18.663  1.00  0.00    -0.394 N 
ATOM     11  C9  UNK     1      18.335   9.362 -17.534  1.00  0.00     0.173 C 
ATOM     12  C10 UNK     1      16.874   9.111 -17.648  1.00  0.00     0.200 C 
ATOM     13  O1  UNK     1      16.440   8.925 -18.924  1.00  0.00    -0.387 OA
ATOM     14  C11 UNK     1      16.887   9.861 -19.831  1.00  0.00     0.187 C 
ATOM     15  C12 UNK     1      18.423   9.695 -19.938  1.00  0.00     0.144 C 
BRANCH  11  16
ATOM     16  C8  UNK     1      18.942   8.031 -17.127  1.00  0.00     0.129 A 
ATOM     17  N1  UNK     1      19.198   6.957 -17.871  1.00  0.00    -0.350 N 
ATOM     18  C7  UNK     1      19.737   5.982 -17.128  1.00  0.00     0.122 A 
ATOM     19  H7  UNK     1      19.022   6.845 -18.897  1.00  0.00     0.166 HD
ATOM     20  C6  UNK     1      19.827   6.472 -15.836  1.00  0.00     0.084 A 
ATOM     21  N4  UNK     1      19.335   7.720 -15.870  1.00  0.00    -0.231 NA
BRANCH  20  22
ATOM     22  C5  UNK     1      20.368   5.781 -14.661  1.00  0.00    -0.006 A 
ATOM     23  C4  UNK     1      20.830   4.499 -14.762  1.00  0.00     0.014 A 
ATOM     24  C3  UNK     1      21.358   3.873 -13.632  1.00  0.00     0.007 A 
ATOM     25  C2  UNK     1      21.395   4.559 -12.453  1.00  0.00    -0.062 A 
ATOM     26  C1  UNK     1      21.950   3.950 -11.215  1.00  0.00     0.048 C 
ATOM     27  C22 UNK     1      20.920   5.865 -12.354  1.00  0.00     0.007 A 
ATOM     28  C21 UNK     1      20.406   6.468 -13.474  1.00  0.00     0.014 A 
ENDBRANCH  20  22
ENDBRANCH  11  16
ENDBRANCH   9  10
ENDBRANCH   1   9
TORSDOF 4
