REMARK  8 active torsions:
REMARK  status: ('A' for Active; 'I' for Inactive)
REMARK       I    between atoms: C2_2  and  N1_4 
REMARK    1  A    between atoms: C5_7  and  N2_8 
REMARK    2  A    between atoms: N2_8  and  C6_9 
REMARK    3  A    between atoms: C6_9  and  C7_10 
REMARK    4  A    between atoms: C10_14  and  C11_15 
REMARK    5  A    between atoms: C11_15  and  C12_16 
REMARK       I    between atoms: C12_16  and  N3_18 
REMARK    6  A    between atoms: N3_18  and  C13_19 
REMARK    7  A    between atoms: C13_19  and  C14_20 
REMARK    8  A    between atoms: C19_28  and  O5_29 
ROOT
ATOM      1  C7  UNK     1      -2.398   1.044  -1.571  1.00  0.00     0.181 C 
ATOM      2  O2  UNK     1      -2.355  -0.314  -1.748  1.00  0.00    -0.373 OA
ATOM      3  C8  UNK     1      -1.076  -0.730  -1.989  1.00  0.00     0.156 C 
ATOM      4  C9  UNK     1      -0.402  -1.125  -0.695  1.00  0.00     0.067 C 
ATOM      5  C10 UNK     1       0.584  -0.038  -0.428  1.00  0.00     0.133 C 
ATOM      6  O4  UNK     1       0.879   0.462  -1.684  1.00  0.00    -0.375 OA
ATOM      7  C18 UNK     1      -0.264   0.437  -2.437  1.00  0.00     0.182 C 
ATOM      8  C19 UNK     1      -1.108   1.633  -2.131  1.00  0.00     0.180 C 
ENDROOT
BRANCH   1   9
ATOM      9  C6  UNK     1      -3.544   1.637  -2.351  1.00  0.00     0.304 C 
BRANCH   9  10
ATOM     10  N2  UNK     1      -4.823   1.114  -1.954  1.00  0.00     0.090 N 
ATOM     11  H9  UNK     1      -5.572   1.362  -2.628  1.00  0.00     0.316 HD
BRANCH  10  12
ATOM     12  C5  UNK     1      -5.242   1.494  -0.640  1.00  0.00     0.223 C 
ATOM     13  C4  UNK     1      -6.601   0.849  -0.401  1.00  0.00     0.055 C 
ATOM     14  C3  UNK     1      -7.709   1.763  -0.941  1.00  0.00     0.128 C 
ATOM     15  N1  UNK     1      -7.774   2.870   0.005  1.00  0.00    -0.352 N 
ATOM     16  C2  UNK     1      -8.981   3.429   0.457  1.00  0.00     0.215 C 
ATOM     17  C21 UNK     1      -6.502   3.378   0.469  1.00  0.00     0.128 C 
ATOM     18  C1  UNK     1      -8.958   4.547   1.415  1.00  0.00     0.117 C 
ATOM     19  O1  UNK     1     -10.069   2.978   0.046  1.00  0.00    -0.274 OA
ATOM     20  C20 UNK     1      -5.381   2.975  -0.461  1.00  0.00     0.055 C 
ENDBRANCH  10  12
ENDBRANCH   9  10
ENDBRANCH   1   9
BRANCH   8  21
ATOM     21  O5  UNK     1      -0.512   2.500  -1.216  1.00  0.00    -0.390 OA
ATOM     22  H29 UNK     1      -1.256   2.821  -0.625  1.00  0.00     0.210 HD
ENDBRANCH   8  21
BRANCH   5  23
ATOM     23  C11 UNK     1       1.871  -0.535   0.165  1.00  0.00     0.134 C 
BRANCH  23  24
ATOM     24  C12 UNK     1       2.776   0.622   0.388  1.00  0.00     0.220 C 
ATOM     25  O3  UNK     1       2.332   1.776   0.066  1.00  0.00    -0.274 OA
ATOM     26  N3  UNK     1       4.074   0.474   0.931  1.00  0.00    -0.357 N 
ATOM     27  H19 UNK     1       4.409  -0.469   1.184  1.00  0.00     0.162 HD
BRANCH  26  28
ATOM     28  C13 UNK     1       4.919   1.611   1.130  1.00  0.00     0.164 C 
BRANCH  28  29
ATOM     29  C14 UNK     1       5.493   2.025  -0.185  1.00  0.00    -0.004 A 
ATOM     30  C15 UNK     1       5.012   2.940  -1.092  1.00  0.00     0.122 A 
ATOM     31  N4  UNK     1       5.859   2.992  -2.153  1.00  0.00    -0.285 N 
ATOM     32  C16 UNK     1       5.698   3.844  -3.330  1.00  0.00     0.179 C 
ATOM     33  N5  UNK     1       6.854   2.148  -1.947  1.00  0.00    -0.185 NA
ATOM     34  C17 UNK     1       6.673   1.538  -0.764  1.00  0.00     0.149 A 
ENDBRANCH  28  29
ENDBRANCH  26  28
ENDBRANCH  23  24
ENDBRANCH   5  23
TORSDOF 8
