REMARK  5 active torsions:
REMARK  status: ('A' for Active; 'I' for Inactive)
REMARK    1  A    between atoms: C3_3  and  C4_4 
REMARK    2  A    between atoms: C4_4  and  O2_6 
REMARK    3  A    between atoms: O2_6  and  C5_7 
REMARK    4  A    between atoms: C5_7  and  C6_8 
REMARK    5  A    between atoms: C10_13  and  C11_14 
ROOT
ATOM      1  C1  UNK     1      -0.636   7.427   8.967  1.00  0.00     0.069 C 
ATOM      2  C2  UNK     1      -0.989   7.855  10.363  1.00  0.00     0.018 A 
ATOM      3  C3  UNK     1      -1.426   6.926  11.175  1.00  0.00     0.052 A 
ATOM      4  C10 UNK     1      -1.824   7.226  12.567  1.00  0.00     0.104 A 
ATOM      5  C21 UNK     1      -1.614   8.624  12.962  1.00  0.00     0.024 A 
ATOM      6  C22 UNK     1      -1.169   9.513  12.099  1.00  0.00     0.020 A 
ATOM      7  C23 UNK     1      -0.996  10.924  12.620  1.00  0.00     0.058 C 
ATOM      8  C24 UNK     1      -2.278  11.276  13.335  1.00  0.00     0.014 C 
ATOM      9  C25 UNK     1      -2.492  10.390  14.550  1.00  0.00     0.084 C 
ATOM     10  C26 UNK     1      -1.891   9.063  14.361  1.00  0.00     0.158 C 
ATOM     11  O6  UNK     1      -1.626   8.343  15.328  1.00  0.00    -0.293 OA
ATOM     12  N1  UNK     1      -0.830   9.212  10.764  1.00  0.00    -0.362 N 
ATOM     13  H27 UNK     1      -0.479   9.925  10.090  1.00  0.00     0.165 HD
ENDROOT
BRANCH   4  14
ATOM     14  C11 UNK     1      -3.238   6.790  12.792  1.00  0.00     0.029 A 
ATOM     15  C12 UNK     1      -4.262   7.149  11.939  1.00  0.00     0.154 A 
ATOM     16  O4  UNK     1      -5.509   6.775  12.159  1.00  0.00    -0.321 OA
ATOM     17  C13 UNK     1      -5.839   6.046  13.196  1.00  0.00     0.089 A 
ATOM     18  C14 UNK     1      -7.150   5.650  13.433  1.00  0.00     0.039 A 
ATOM     19  C19 UNK     1      -4.884   5.642  14.098  1.00  0.00     0.049 A 
ATOM     20  C15 UNK     1      -7.489   4.882  14.527  1.00  0.00     0.009 A 
ATOM     21  C16 UNK     1      -6.531   4.476  15.433  1.00  0.00    -0.061 A 
ATOM     22  C17 UNK     1      -6.872   3.644  16.627  1.00  0.00     0.048 C 
ATOM     23  C18 UNK     1      -5.230   4.868  15.201  1.00  0.00     0.025 A 
ATOM     24  C20 UNK     1      -3.553   6.027  13.885  1.00  0.00     0.194 A 
ATOM     25  O5  UNK     1      -2.744   5.627  14.733  1.00  0.00    -0.287 OA
ENDBRANCH   4  14
BRANCH   3  26
ATOM     26  C4  UNK     1      -1.560   5.531  10.734  1.00  0.00     0.292 C 
ATOM     27  O1  UNK     1      -1.988   4.654  11.546  1.00  0.00    -0.259 OA
BRANCH  26  28
ATOM     28  O2  UNK     1      -1.264   5.054   9.494  1.00  0.00    -0.315 OA
BRANCH  28  29
ATOM     29  C5  UNK     1      -1.376   3.756   9.039  1.00  0.00     0.211 C 
BRANCH  29  30
ATOM     30  C6  UNK     1      -0.558   2.737   9.778  1.00  0.00     0.145 C 
ATOM     31  C7  UNK     1       0.890   3.063   9.578  1.00  0.00     0.036 C 
ATOM     32  C8  UNK     1       1.350   2.138   8.483  1.00  0.00     0.029 C 
ATOM     33  C9  UNK     1       0.183   1.243   8.282  1.00  0.00     0.168 C 
ATOM     34  O3  UNK     1      -0.795   1.503   9.186  1.00  0.00    -0.384 OA
ENDBRANCH  29  30
ENDBRANCH  28  29
ENDBRANCH  26  28
ENDBRANCH   3  26
TORSDOF 5
