REMARK  6 active torsions:
REMARK  status: ('A' for Active; 'I' for Inactive)
REMARK    1  A    between atoms: O1_2  and  C2_3 
REMARK    2  A    between atoms: C2_3  and  C3_4 
REMARK    3  A    between atoms: C5_6  and  N1_7 
REMARK    4  A    between atoms: C7_9  and  N2_10 
REMARK    5  A    between atoms: N2_10  and  S1_11 
REMARK       I    between atoms: N4_18  and  C11_19 
REMARK       I    between atoms: C11_19  and  N5_21 
REMARK    6  A    between atoms: N5_21  and  C12_22 
ROOT
ATOM      1  C3  UNK     1      17.056  10.775 -16.644  1.00  0.00     0.114 C 
ATOM      2  C4  UNK     1      17.681  10.239 -15.345  1.00  0.00     0.056 C 
ATOM      3  C5  UNK     1      18.021   8.844 -15.744  1.00  0.00     0.129 C 
ATOM      4  C10 UNK     1      18.696   9.110 -17.084  1.00  0.00     0.155 C 
ATOM      5  N4  UNK     1      17.865  10.178 -17.666  1.00  0.00    -0.325 N 
ATOM      6  C11 UNK     1      17.916  10.476 -19.066  1.00  0.00     0.319 C 
ATOM      7  O4  UNK     1      17.185  11.383 -19.540  1.00  0.00    -0.247 OA
ATOM      8  N5  UNK     1      18.755   9.792 -19.947  1.00  0.00    -0.338 N 
ATOM      9  H18 UNK     1      19.369   9.033 -19.566  1.00  0.00     0.164 HD
ENDROOT
BRANCH   3  10
ATOM     10  N1  UNK     1      18.959   8.197 -14.880  1.00  0.00    -0.273 N 
ATOM     11  C6  UNK     1      19.749   7.181 -15.305  1.00  0.00     0.144 A 
ATOM     12  C7  UNK     1      20.541   6.765 -14.258  1.00  0.00     0.078 A 
ATOM     13  C9  UNK     1      20.208   7.557 -13.188  1.00  0.00     0.170 A 
ATOM     14  N3  UNK     1      19.241   8.418 -13.608  1.00  0.00    -0.182 NA
BRANCH  12  15
ATOM     15  N2  UNK     1      21.490   5.722 -14.328  1.00  0.00    -0.282 N 
ATOM     16  H11 UNK     1      22.168   5.637 -15.125  1.00  0.00     0.178 HD
BRANCH  15  17
ATOM     17  S1  UNK     1      21.562   4.541 -13.085  1.00  0.00     0.227 S 
ATOM     18  C8  UNK     1      21.957   5.297 -11.529  1.00  0.00     0.186 C 
ATOM     19  O2  UNK     1      20.207   3.871 -12.920  1.00  0.00    -0.206 OA
ATOM     20  O3  UNK     1      22.557   3.456 -13.407  1.00  0.00    -0.206 OA
ENDBRANCH  15  17
ENDBRANCH  12  15
ENDBRANCH   3  10
BRANCH   1  21
ATOM     21  C2  UNK     1      16.962  12.253 -16.621  1.00  0.00     0.192 C 
BRANCH  21  22
ATOM     22  O1  UNK     1      18.112  12.894 -16.393  1.00  0.00    -0.394 OA
ATOM     23  C1  UNK     1      19.154  12.761 -17.245  1.00  0.00     0.201 C 
ENDBRANCH  21  22
ENDBRANCH   1  21
BRANCH   8  24
ATOM     24  C12 UNK     1      18.842  10.057 -21.375  1.00  0.00     0.086 C 
ATOM     25  C13 UNK     1      18.628   8.757 -22.125  1.00  0.00     0.025 C 
ATOM     26  C14 UNK     1      20.131   8.548 -22.061  1.00  0.00     0.004 C 
ATOM     27  C15 UNK     1      20.260  10.055 -21.918  1.00  0.00     0.025 C 
ENDBRANCH   8  24
TORSDOF 6
