REMARK  9 active torsions:
REMARK  status: ('A' for Active; 'I' for Inactive)
REMARK    1  A    between atoms: C2_2  and  C3_3 
REMARK    2  A    between atoms: C3_3  and  C4_4 
REMARK    3  A    between atoms: C5_6  and  C6_7 
REMARK    4  A    between atoms: C6_7  and  C8_9 
REMARK    5  A    between atoms: C10_11  and  C12_13 
REMARK    6  A    between atoms: C13_14  and  C14_15 
REMARK    7  A    between atoms: C19_22  and  O3_24 
REMARK    8  A    between atoms: C21_25  and  O4_26 
REMARK    9  A    between atoms: O4_26  and  C22_27 
ROOT
ATOM      1  C14 UNK     1      -0.210  -2.311   4.025  1.00  0.00     0.069 C 
ATOM      2  C15 UNK     1      -1.078  -3.217   3.610  1.00  0.00     0.046 C 
ATOM      3  C16 UNK     1      -2.492  -3.089   3.956  1.00  0.00    -0.021 C 
ATOM      4  C17 UNK     1      -3.257  -4.162   3.833  1.00  0.00     0.089 C 
ATOM      5 Cl1  UNK     1      -2.637  -5.709   3.277  1.00  0.00    -0.080 Cl
ATOM      6  C18 UNK     1      -4.670  -4.042   4.177  1.00  0.00     0.207 C 
ATOM      7  O2  UNK     1      -5.507  -4.877   3.714  1.00  0.00    -0.288 OA
ATOM      8  C19 UNK     1      -5.074  -2.945   5.058  1.00  0.00     0.147 C 
ATOM      9  C20 UNK     1      -4.897  -3.405   6.499  1.00  0.00     0.057 C 
ATOM     10  C21 UNK     1      -4.335  -1.662   4.852  1.00  0.00     0.184 C 
ATOM     11  C24 UNK     1      -2.937  -1.772   4.411  1.00  0.00     0.078 C 
ATOM     12  C25 UNK     1      -1.929  -1.302   5.468  1.00  0.00     0.187 C 
ATOM     13  O6  UNK     1      -0.668  -1.253   4.783  1.00  0.00    -0.350 OA
ENDROOT
BRANCH   1  14
ATOM     14  C13 UNK     1       1.195  -2.434   3.683  1.00  0.00     0.035 C 
ATOM     15  C12 UNK     1       2.044  -1.538   4.095  1.00  0.00     0.016 C 
BRANCH  15  16
ATOM     16  C10 UNK     1       3.517  -1.578   3.794  1.00  0.00     0.105 C 
ATOM     17  C5  UNK     1       3.858  -0.402   2.957  1.00  0.00     0.166 C 
ATOM     18  O1  UNK     1       4.131  -0.897   1.683  1.00  0.00    -0.352 OA
ATOM     19  C4  UNK     1       3.623  -2.192   1.654  1.00  0.00     0.261 C 
ATOM     20  O7  UNK     1       3.695  -2.676   2.951  1.00  0.00    -0.344 OA
ATOM     21  C11 UNK     1       4.266  -1.709   5.075  1.00  0.00     0.053 C 
BRANCH  17  22
ATOM     22  C6  UNK     1       4.987   0.445   3.423  1.00  0.00     0.013 C 
ATOM     23  C7  UNK     1       6.310  -0.236   3.520  1.00  0.00     0.012 C 
BRANCH  22  24
ATOM     24  C8  UNK     1       5.145   1.576   2.397  1.00  0.00     0.002 C 
ATOM     25  C9  UNK     1       3.909   2.405   2.285  1.00  0.00     0.005 C 
ENDBRANCH  22  24
ENDBRANCH  17  22
BRANCH  19  26
ATOM     26  C3  UNK     1       4.444  -3.041   0.709  1.00  0.00     0.060 C 
BRANCH  26  27
ATOM     27  C2  UNK     1       5.896  -3.065   1.203  1.00  0.00     0.000 C 
ATOM     28  C1  UNK     1       6.764  -3.893   0.310  1.00  0.00     0.005 C 
ENDBRANCH  26  27
ENDBRANCH  19  26
ENDBRANCH  15  16
ENDBRANCH   1  14
BRANCH  10  29
ATOM     29  O4  UNK     1      -5.101  -0.861   3.972  1.00  0.00    -0.312 OA
BRANCH  29  30
ATOM     30  C22 UNK     1      -5.699   0.327   4.362  1.00  0.00     0.255 C 
ATOM     31  C23 UNK     1      -6.504   1.177   3.451  1.00  0.00     0.126 C 
ATOM     32  O5  UNK     1      -5.553   0.711   5.551  1.00  0.00    -0.266 OA
ENDBRANCH  29  30
ENDBRANCH  10  29
BRANCH   8  33
ATOM     33  O3  UNK     1      -6.467  -2.777   4.888  1.00  0.00    -0.379 OA
ATOM     34  H28 UNK     1      -6.803  -2.150   5.579  1.00  0.00     0.211 HD
ENDBRANCH   8  33
TORSDOF 9
