REMARK  3 active torsions:
REMARK  status: ('A' for Active; 'I' for Inactive)
REMARK    1  A    between atoms: O1_2  and  C2_3 
REMARK    2  A    between atoms: C7_10  and  O2_12 
REMARK    3  A    between atoms: C17_21  and  O3_22 
ROOT
ATOM      1  C2  UNK     1      19.060  11.388 -20.132  1.00  0.00     0.178 C 
ATOM      2  N1  UNK     1      19.649  11.354 -18.955  1.00  0.00    -0.255 NA
ATOM      3  C3  UNK     1      19.572   9.992 -18.376  1.00  0.00     0.088 C 
ATOM      4  C4  UNK     1      20.432   9.160 -19.295  1.00  0.00     0.307 C 
ATOM      5  N2  UNK     1      19.867   9.146 -20.602  1.00  0.00     0.112 N 
ATOM      6  C5  UNK     1      20.724   9.511 -21.672  1.00  0.00     0.277 C 
ATOM      7  C6  UNK     1      19.772  10.021 -22.756  1.00  0.00     0.071 C 
ATOM      8  C7  UNK     1      18.384  10.024 -22.111  1.00  0.00     0.100 C 
ATOM      9  C8  UNK     1      17.577  11.213 -22.584  1.00  0.00     0.049 C 
ATOM     10  C9  UNK     1      18.710  10.052 -20.675  1.00  0.00     0.255 C 
ATOM     11  C10 UNK     1      17.671   9.363 -19.778  1.00  0.00     0.062 C 
ATOM     12  C11 UNK     1      18.120   9.657 -18.387  1.00  0.00     0.030 C 
ATOM     13  C12 UNK     1      17.919   8.663 -17.344  1.00  0.00    -0.022 C 
ATOM     14  C13 UNK     1      18.009   7.232 -17.686  1.00  0.00     0.017 C 
ATOM     15  C14 UNK     1      16.500   8.887 -16.776  1.00  0.00     0.017 C 
ATOM     16  C15 UNK     1      18.905   9.105 -16.260  1.00  0.00     0.066 A 
ATOM     17  C16 UNK     1      19.953   9.946 -16.959  1.00  0.00     0.059 C 
ATOM     18  C17 UNK     1      18.209   9.855 -15.202  1.00  0.00     0.152 A 
ATOM     19  N3  UNK     1      18.435   9.277 -14.086  1.00  0.00    -0.226 NA
ATOM     20  C18 UNK     1      19.261   8.134 -14.231  1.00  0.00     0.083 A 
ATOM     21  C19 UNK     1      19.569   8.006 -15.572  1.00  0.00    -0.011 A 
ATOM     22  C20 UNK     1      20.379   6.947 -15.930  1.00  0.00     0.013 A 
ATOM     23  C21 UNK     1      20.871   6.039 -14.987  1.00  0.00     0.038 A 
ATOM     24  C22 UNK     1      20.561   6.173 -13.670  1.00  0.00     0.086 A 
ATOM     25  C23 UNK     1      19.750   7.236 -13.318  1.00  0.00     0.072 A 
ATOM     26  C24 UNK     1      19.397   7.415 -11.918  1.00  0.00     0.167 C 
ATOM     27  O4  UNK     1      18.922   8.519 -11.551  1.00  0.00    -0.292 OA
ATOM     28  C25 UNK     1      19.622   6.268 -11.000  1.00  0.00     0.122 C 
ATOM     29  C26 UNK     1      20.995   5.699 -11.338  1.00  0.00     0.067 C 
ATOM     30  C27 UNK     1      21.309   4.512 -10.453  1.00  0.00     0.046 C 
ATOM     31  C28 UNK     1      22.003   6.773 -11.023  1.00  0.00     0.046 C 
ATOM     32  O5  UNK     1      21.024   5.299 -12.691  1.00  0.00    -0.340 OA
ENDROOT
BRANCH  18  33
ATOM     33  O3  UNK     1      17.422  11.006 -15.317  1.00  0.00    -0.347 OA
ATOM     34  H25 UNK     1      16.946  11.370 -14.493  1.00  0.00     0.219 HD
ENDBRANCH  18  33
BRANCH   1  35
ATOM     35  O1  UNK     1      18.817  12.586 -20.756  1.00  0.00    -0.341 OA
ATOM     36  C1  UNK     1      19.735  13.661 -20.533  1.00  0.00     0.211 C 
ENDBRANCH   1  35
BRANCH   8  37
ATOM     37  O2  UNK     1      17.740   8.857 -22.445  1.00  0.00    -0.387 OA
ATOM     38  H13 UNK     1      18.114   8.063 -22.003  1.00  0.00     0.210 HD
ENDBRANCH   8  37
TORSDOF 3
