REMARK  8 active torsions:
REMARK  status: ('A' for Active; 'I' for Inactive)
REMARK    1  A    between atoms: O1_2  and  C2_3 
REMARK    2  A    between atoms: C2_3  and  C3_4 
REMARK       I    between atoms: C3_4  and  N1_6 
REMARK    3  A    between atoms: N1_6  and  C4_7 
REMARK    4  A    between atoms: C4_7  and  C5_8 
REMARK    5  A    between atoms: C8_13  and  N3_14 
REMARK       I    between atoms: N3_14  and  C9_15 
REMARK       I    between atoms: C9_15  and  N4_17 
REMARK    6  A    between atoms: N4_17  and  C10_18 
REMARK    7  A    between atoms: N5_24  and  C16_25 
REMARK    8  A    between atoms: C16_25  and  C17_26 
ROOT
ATOM      1  C5  UNK     1      -3.701   1.485  -0.470  1.00  0.00     0.332 C 
ATOM      2  C6  UNK     1      -2.725   1.027  -1.521  1.00  0.00     0.255 C 
ATOM      3  O3  UNK     1      -3.047   0.352  -2.505  1.00  0.00    -0.271 OA
ATOM      4  N2  UNK     1      -1.368   1.423  -1.315  1.00  0.00    -0.342 N 
ATOM      5  C7  UNK     1      -0.141   1.276  -2.058  1.00  0.00     0.151 C 
ATOM      6  C8  UNK     1       0.910   1.533  -0.985  1.00  0.00     0.106 C 
ATOM      7  C13 UNK     1       0.267   2.703  -0.265  1.00  0.00     0.054 C 
ATOM      8  C14 UNK     1      -1.130   2.156  -0.065  1.00  0.00     0.117 C 
ATOM      9  C15 UNK     1      -2.150   3.231   0.144  1.00  0.00     0.299 C 
ATOM     10  N5  UNK     1      -3.491   2.870  -0.135  1.00  0.00     0.111 N 
ENDROOT
BRANCH   6  11
ATOM     11  N3  UNK     1       2.193   1.845  -1.543  1.00  0.00    -0.337 N 
ATOM     12  C9  UNK     1       3.333   1.054  -1.236  1.00  0.00     0.316 C 
ATOM     13  O4  UNK     1       3.206   0.075  -0.466  1.00  0.00    -0.247 OA
ATOM     14  N4  UNK     1       4.626   1.318  -1.762  1.00  0.00    -0.339 N 
ATOM     15  H14 UNK     1       4.753   2.129  -2.405  1.00  0.00     0.164 HD
ATOM     16  H13 UNK     1       2.321   2.653  -2.184  1.00  0.00     0.164 HD
BRANCH  14  17
ATOM     17  C10 UNK     1       5.796   0.523  -1.460  1.00  0.00     0.078 C 
ATOM     18  C11 UNK     1       6.916   1.320  -0.880  1.00  0.00     0.032 C 
ATOM     19  C12 UNK     1       6.265  -0.168  -2.745  1.00  0.00     0.032 C 
ENDBRANCH  14  17
ENDBRANCH   6  11
BRANCH   1  20
ATOM     20  C4  UNK     1      -5.053   1.225  -1.014  1.00  0.00     0.168 C 
BRANCH  20  21
ATOM     21  N1  UNK     1      -5.202  -0.211  -1.282  1.00  0.00    -0.357 N 
ATOM     22  C3  UNK     1      -5.126  -1.214  -0.297  1.00  0.00     0.241 C 
ATOM     23  O2  UNK     1      -4.899  -0.833   0.904  1.00  0.00    -0.271 OA
ATOM     24  H6  UNK     1      -5.343  -0.535  -2.286  1.00  0.00     0.162 HD
BRANCH  22  25
ATOM     25  C2  UNK     1      -5.278  -2.663  -0.530  1.00  0.00     0.269 C 
BRANCH  25  26
ATOM     26  O1  UNK     1      -5.548  -3.084  -1.793  1.00  0.00    -0.387 OA
ATOM     27  C1  UNK     1      -6.816  -2.818  -2.234  1.00  0.00     0.202 C 
ENDBRANCH  25  26
ENDBRANCH  22  25
ENDBRANCH  20  21
ENDBRANCH   1  20
BRANCH  10  28
ATOM     28  C16 UNK     1      -4.135   3.830  -0.951  1.00  0.00     0.334 C 
BRANCH  28  29
ATOM     29  C17 UNK     1      -4.112   5.137  -0.209  1.00  0.00     0.092 A 
ATOM     30  N6  UNK     1      -3.188   6.112  -0.232  1.00  0.00    -0.131 NA
ATOM     31  O5  UNK     1      -3.554   7.086   0.563  1.00  0.00    -0.218 OA
ATOM     32  C18 UNK     1      -4.701   6.800   1.125  1.00  0.00     0.077 A 
ATOM     33  C19 UNK     1      -5.467   7.625   2.088  1.00  0.00     0.079 C 
ATOM     34  C20 UNK     1      -5.091   5.560   0.656  1.00  0.00     0.065 A 
ENDBRANCH  28  29
ENDBRANCH  10  28
TORSDOF 8
