REMARK  3 active torsions:
REMARK  status: ('A' for Active; 'I' for Inactive)
REMARK    1  A    between atoms: C16_18  and  O1_19 
REMARK    2  A    between atoms: C19_22  and  C20_23 
REMARK    3  A    between atoms: C20_23  and  O3_25 
ROOT
ATOM      1  C1  UNK     1      17.023   9.017 -21.635  1.00  0.00     0.036 C 
ATOM      2  C2  UNK     1      18.374   8.851 -21.091  1.00  0.00    -0.026 C 
ATOM      3  C3  UNK     1      18.615   9.089 -19.809  1.00  0.00    -0.051 C 
ATOM      4  C4  UNK     1      17.512   9.519 -18.950  1.00  0.00     0.306 C 
ATOM      5  N1  UNK     1      17.856   9.729 -17.585  1.00  0.00     0.093 N 
ATOM      6  C5  UNK     1      16.785  10.555 -17.000  1.00  0.00     0.310 C 
ATOM      7  C6  UNK     1      19.095  10.363 -17.326  1.00  0.00     0.237 C 
ATOM      8  C7  UNK     1      19.609  10.001 -15.938  1.00  0.00     0.044 C 
ATOM      9  C8  UNK     1      18.954   8.727 -15.493  1.00  0.00     0.029 C 
ATOM     10  C9  UNK     1      19.338   8.281 -14.136  1.00  0.00     0.025 C 
ATOM     11  C10 UNK     1      20.426   9.023 -13.466  1.00  0.00     0.007 C 
ATOM     12  C11 UNK     1      20.951   8.183 -12.325  1.00  0.00     0.001 C 
ATOM     13  C12 UNK     1      20.047   7.041 -11.963  1.00  0.00     0.002 C 
ATOM     14  C13 UNK     1      19.746   6.125 -13.121  1.00  0.00     0.036 C 
ATOM     15  C14 UNK     1      19.874   6.865 -14.400  1.00  0.00     0.225 C 
ATOM     16  N2  UNK     1      19.009   6.436 -15.456  1.00  0.00     0.096 N 
ATOM     17  C15 UNK     1      19.135   7.567 -16.396  1.00  0.00     0.254 C 
ATOM     18  C16 UNK     1      20.416   7.515 -17.153  1.00  0.00     0.152 C 
ATOM     19  C17 UNK     1      20.176   7.602 -18.621  1.00  0.00     0.044 C 
ATOM     20  C18 UNK     1      19.978   8.937 -19.196  1.00  0.00     0.034 C 
ATOM     21  C19 UNK     1      20.191  10.104 -18.296  1.00  0.00     0.127 C 
ATOM     22  H24 UNK     1      19.412   5.613 -15.916  1.00  0.00     0.317 HD
ENDROOT
BRANCH  21  23
ATOM     23  C20 UNK     1      20.379  11.305 -19.176  1.00  0.00     0.265 C 
ATOM     24  O2  UNK     1      21.432  11.956 -19.258  1.00  0.00    -0.265 OA
BRANCH  23  25
ATOM     25  O3  UNK     1      19.308  11.744 -19.970  1.00  0.00    -0.326 OA
ATOM     26  C21 UNK     1      19.434  12.872 -20.817  1.00  0.00     0.213 C 
ENDBRANCH  23  25
ENDBRANCH  21  23
BRANCH  18  27
ATOM     27  O1  UNK     1      20.970   6.226 -16.928  1.00  0.00    -0.393 OA
ATOM     28  H27 UNK     1      21.947   6.242 -17.027  1.00  0.00     0.210 HD
ENDBRANCH  18  27
TORSDOF 3
