REMARK  5 active torsions:
REMARK  status: ('A' for Active; 'I' for Inactive)
REMARK    1  A    between atoms: C3_3  and  C4_4 
REMARK    2  A    between atoms: C4_4  and  O2_6 
REMARK    3  A    between atoms: O2_6  and  C5_7 
REMARK    4  A    between atoms: C5_7  and  C6_8 
REMARK    5  A    between atoms: C10_13  and  C11_14 
ROOT
ATOM      1  C1  UNK     1      -0.103  -1.997   7.249  1.00  0.00     0.069 C 
ATOM      2  C2  UNK     1       0.294  -2.778   6.021  1.00  0.00     0.018 A 
ATOM      3  C3  UNK     1       0.082  -2.374   4.804  1.00  0.00     0.052 A 
ATOM      4  C10 UNK     1       0.465  -3.143   3.614  1.00  0.00     0.104 A 
ATOM      5  C21 UNK     1       1.135  -4.396   3.937  1.00  0.00     0.024 A 
ATOM      6  C22 UNK     1       1.351  -4.806   5.156  1.00  0.00     0.020 A 
ATOM      7  C23 UNK     1       2.050  -6.112   5.355  1.00  0.00     0.058 C 
ATOM      8  C24 UNK     1       1.671  -7.174   4.398  1.00  0.00     0.014 C 
ATOM      9  C25 UNK     1       1.468  -6.725   2.999  1.00  0.00     0.084 C 
ATOM     10  C26 UNK     1       1.619  -5.277   2.851  1.00  0.00     0.158 C 
ATOM     11  O6  UNK     1       2.141  -4.718   1.851  1.00  0.00    -0.293 OA
ATOM     12  N1  UNK     1       0.948  -4.032   6.276  1.00  0.00    -0.362 N 
ATOM     13  H27 UNK     1       1.132  -4.384   7.236  1.00  0.00     0.165 HD
ENDROOT
BRANCH   4  14
ATOM     14  C11 UNK     1       1.239  -2.307   2.654  1.00  0.00     0.029 A 
ATOM     15  C12 UNK     1       0.937  -2.323   1.314  1.00  0.00     0.154 A 
ATOM     16  O4  UNK     1       1.599  -1.583   0.436  1.00  0.00    -0.321 OA
ATOM     17  C13 UNK     1       2.575  -0.798   0.797  1.00  0.00     0.089 A 
ATOM     18  C14 UNK     1       3.266  -0.021  -0.140  1.00  0.00     0.039 A 
ATOM     19  C19 UNK     1       2.916  -0.747   2.129  1.00  0.00     0.049 A 
ATOM     20  C15 UNK     1       4.290   0.791   0.298  1.00  0.00     0.009 A 
ATOM     21  C16 UNK     1       4.625   0.838   1.628  1.00  0.00    -0.061 A 
ATOM     22  C17 UNK     1       5.728   1.713   2.103  1.00  0.00     0.048 C 
ATOM     23  C18 UNK     1       3.946   0.076   2.545  1.00  0.00     0.025 A 
ATOM     24  C20 UNK     1       2.257  -1.499   3.090  1.00  0.00     0.194 A 
ATOM     25  O5  UNK     1       2.597  -1.428   4.311  1.00  0.00    -0.287 OA
ENDBRANCH   4  14
BRANCH   3  26
ATOM     26  C4  UNK     1      -0.588  -1.067   4.581  1.00  0.00     0.292 C 
ATOM     27  O1  UNK     1      -0.947  -0.367   5.547  1.00  0.00    -0.259 OA
BRANCH  26  28
ATOM     28  O2  UNK     1      -0.815  -0.627   3.321  1.00  0.00    -0.315 OA
BRANCH  28  29
ATOM     29  C5  UNK     1      -1.410   0.491   2.835  1.00  0.00     0.211 C 
BRANCH  29  30
ATOM     30  C6  UNK     1      -2.869   0.713   2.921  1.00  0.00     0.145 C 
ATOM     31  C7  UNK     1      -3.506   0.867   4.253  1.00  0.00     0.036 C 
ATOM     32  C8  UNK     1      -2.941   2.242   4.641  1.00  0.00     0.029 C 
ATOM     33  C9  UNK     1      -2.939   2.916   3.289  1.00  0.00     0.168 C 
ATOM     34  O3  UNK     1      -3.091   1.975   2.297  1.00  0.00    -0.384 OA
ENDBRANCH  29  30
ENDBRANCH  28  29
ENDBRANCH  26  28
ENDBRANCH   3  26
TORSDOF 5
