REMARK  5 active torsions:
REMARK  status: ('A' for Active; 'I' for Inactive)
REMARK    1  A    between atoms: C3_3  and  C4_4 
REMARK    2  A    between atoms: C4_4  and  O2_6 
REMARK    3  A    between atoms: O2_6  and  C5_7 
REMARK    4  A    between atoms: C5_7  and  C6_8 
REMARK    5  A    between atoms: C10_13  and  C11_14 
ROOT
ATOM      1  C1  UNK     1      17.726   9.234 -14.103  1.00  0.00     0.069 C 
ATOM      2  C2  UNK     1      18.426  10.134 -15.052  1.00  0.00     0.018 A 
ATOM      3  C3  UNK     1      19.396   9.703 -15.822  1.00  0.00     0.052 A 
ATOM      4  C10 UNK     1      20.103  10.585 -16.775  1.00  0.00     0.104 A 
ATOM      5  C21 UNK     1      19.623  11.965 -16.765  1.00  0.00     0.024 A 
ATOM      6  C22 UNK     1      18.649  12.375 -15.985  1.00  0.00     0.020 A 
ATOM      7  C23 UNK     1      18.249  13.833 -16.075  1.00  0.00     0.058 C 
ATOM      8  C24 UNK     1      18.080  14.164 -17.522  1.00  0.00     0.014 C 
ATOM      9  C25 UNK     1      19.358  13.982 -18.279  1.00  0.00     0.084 C 
ATOM     10  C26 UNK     1      20.240  12.971 -17.655  1.00  0.00     0.158 C 
ATOM     11  O6  UNK     1      21.497  12.929 -17.848  1.00  0.00    -0.293 OA
ATOM     12  N1  UNK     1      18.000  11.508 -15.096  1.00  0.00    -0.362 N 
ATOM     13  H27 UNK     1      17.231  11.863 -14.491  1.00  0.00     0.165 HD
ENDROOT
BRANCH   4  14
ATOM     14  C11 UNK     1      20.100   9.964 -18.109  1.00  0.00     0.029 A 
ATOM     15  C12 UNK     1      21.251   9.942 -18.855  1.00  0.00     0.154 A 
ATOM     16  O4  UNK     1      21.273   9.385 -20.066  1.00  0.00    -0.321 OA
ATOM     17  C13 UNK     1      20.188   8.837 -20.586  1.00  0.00     0.089 A 
ATOM     18  C14 UNK     1      20.228   8.265 -21.839  1.00  0.00     0.039 A 
ATOM     19  C19 UNK     1      18.986   8.815 -19.904  1.00  0.00     0.049 A 
ATOM     20  C15 UNK     1      19.113   7.690 -22.400  1.00  0.00     0.009 A 
ATOM     21  C16 UNK     1      17.898   7.658 -21.730  1.00  0.00    -0.061 A 
ATOM     22  C17 UNK     1      16.699   7.033 -22.347  1.00  0.00     0.048 C 
ATOM     23  C18 UNK     1      17.865   8.234 -20.473  1.00  0.00     0.025 A 
ATOM     24  C20 UNK     1      18.970   9.394 -18.649  1.00  0.00     0.194 A 
ATOM     25  O5  UNK     1      17.880   9.377 -18.023  1.00  0.00    -0.287 OA
ENDBRANCH   4  14
BRANCH   3  26
ATOM     26  C4  UNK     1      19.821   8.318 -15.770  1.00  0.00     0.292 C 
ATOM     27  O1  UNK     1      20.754   7.919 -16.515  1.00  0.00    -0.259 OA
BRANCH  26  28
ATOM     28  O2  UNK     1      19.249   7.393 -14.933  1.00  0.00    -0.315 OA
BRANCH  28  29
ATOM     29  C5  UNK     1      19.625   6.044 -14.847  1.00  0.00     0.211 C 
BRANCH  29  30
ATOM     30  C6  UNK     1      21.079   5.885 -14.441  1.00  0.00     0.145 C 
ATOM     31  C7  UNK     1      21.393   4.446 -14.190  1.00  0.00     0.036 C 
ATOM     32  C8  UNK     1      20.922   4.241 -12.770  1.00  0.00     0.029 C 
ATOM     33  C9  UNK     1      20.739   5.630 -12.247  1.00  0.00     0.168 C 
ATOM     34  O3  UNK     1      21.314   6.469 -13.187  1.00  0.00    -0.384 OA
ENDBRANCH  29  30
ENDBRANCH  28  29
ENDBRANCH  26  28
ENDBRANCH   3  26
TORSDOF 5
