REMARK  5 active torsions:
REMARK  status: ('A' for Active; 'I' for Inactive)
REMARK    1  A    between atoms: C3_3  and  C4_4 
REMARK    2  A    between atoms: C4_4  and  O2_6 
REMARK    3  A    between atoms: O2_6  and  C5_7 
REMARK    4  A    between atoms: C5_7  and  C6_8 
REMARK    5  A    between atoms: C10_13  and  C11_14 
ROOT
ATOM      1  C1  UNK     1      19.652  10.720 -13.560  1.00  0.00     0.069 C 
ATOM      2  C2  UNK     1      19.084  10.674 -14.947  1.00  0.00     0.018 A 
ATOM      3  C3  UNK     1      19.086   9.546 -15.593  1.00  0.00     0.052 A 
ATOM      4  C10 UNK     1      18.543   9.466 -16.978  1.00  0.00     0.104 A 
ATOM      5  C21 UNK     1      17.986  10.734 -17.434  1.00  0.00     0.024 A 
ATOM      6  C22 UNK     1      17.983  11.882 -16.775  1.00  0.00     0.021 A 
ATOM      7  C23 UNK     1      17.418  13.151 -17.256  1.00  0.00     0.067 C 
ATOM      8  C24 UNK     1      16.807  13.126 -18.607  1.00  0.00    -0.036 C 
ATOM      9  C25 UNK     1      17.006  14.470 -19.273  1.00  0.00     0.015 C 
ATOM     10  C26 UNK     1      15.306  12.938 -18.449  1.00  0.00     0.015 C 
ATOM     11  C27 UNK     1      17.392  12.075 -19.529  1.00  0.00     0.092 C 
ATOM     12  C28 UNK     1      17.336  10.793 -18.749  1.00  0.00     0.159 C 
ATOM     13  O6  UNK     1      16.732   9.835 -19.270  1.00  0.00    -0.293 OA
ATOM     14  N1  UNK     1      18.552  11.871 -15.478  1.00  0.00    -0.362 N 
ATOM     15  H31 UNK     1      18.569  12.780 -14.915  1.00  0.00     0.165 HD
ENDROOT
BRANCH   4  16
ATOM     16  C11 UNK     1      19.648   9.028 -17.909  1.00  0.00     0.029 A 
ATOM     17  C12 UNK     1      20.856   9.681 -17.855  1.00  0.00     0.154 A 
ATOM     18  O4  UNK     1      21.852   9.337 -18.673  1.00  0.00    -0.321 OA
ATOM     19  C13 UNK     1      21.759   8.391 -19.555  1.00  0.00     0.089 A 
ATOM     20  C14 UNK     1      22.818   8.052 -20.400  1.00  0.00     0.039 A 
ATOM     21  C19 UNK     1      20.581   7.690 -19.671  1.00  0.00     0.049 A 
ATOM     22  C15 UNK     1      22.716   7.051 -21.331  1.00  0.00     0.009 A 
ATOM     23  C16 UNK     1      21.521   6.352 -21.437  1.00  0.00    -0.061 A 
ATOM     24  C17 UNK     1      21.402   5.267 -22.442  1.00  0.00     0.048 C 
ATOM     25  C18 UNK     1      20.482   6.697 -20.596  1.00  0.00     0.025 A 
ATOM     26  C20 UNK     1      19.510   8.022 -18.828  1.00  0.00     0.194 A 
ATOM     27  O5  UNK     1      18.453   7.387 -18.934  1.00  0.00    -0.287 OA
ENDBRANCH   4  16
BRANCH   3  28
ATOM     28  C4  UNK     1      19.639   8.312 -14.974  1.00  0.00     0.292 C 
ATOM     29  O1  UNK     1      19.608   7.266 -15.664  1.00  0.00    -0.259 OA
BRANCH  28  30
ATOM     30  O2  UNK     1      20.167   8.220 -13.746  1.00  0.00    -0.315 OA
BRANCH  30  31
ATOM     31  C5  UNK     1      20.709   7.239 -12.978  1.00  0.00     0.211 C 
BRANCH  31  32
ATOM     32  C6  UNK     1      19.899   6.088 -12.524  1.00  0.00     0.145 C 
ATOM     33  C7  UNK     1      19.314   5.245 -13.596  1.00  0.00     0.036 C 
ATOM     34  C8  UNK     1      19.076   3.906 -12.857  1.00  0.00     0.029 C 
ATOM     35  C9  UNK     1      20.200   3.953 -11.857  1.00  0.00     0.168 C 
ATOM     36  O3  UNK     1      20.649   5.227 -11.713  1.00  0.00    -0.384 OA
ENDBRANCH  31  32
ENDBRANCH  30  31
ENDBRANCH  28  30
ENDBRANCH   3  28
TORSDOF 5
