REMARK  2 active torsions:
REMARK  status: ('A' for Active; 'I' for Inactive)
REMARK    1  A    between atoms: C3_6  and  C4_7 
REMARK       I    between atoms: N4_15  and  C11_16 
REMARK       I    between atoms: C11_16  and  N5_18 
REMARK    2  A    between atoms: N5_18  and  C12_19 
ROOT
ATOM      1  C4  UNK     1      19.363  11.421 -21.014  1.00  0.00     0.014 A 
ATOM      2  C5  UNK     1      19.480  12.445 -20.115  1.00  0.00     0.018 A 
ATOM      3  C6  UNK     1      19.309  12.219 -18.767  1.00  0.00     0.040 A 
ATOM      4  C7  UNK     1      19.017  10.970 -18.266  1.00  0.00     0.095 A 
ATOM      5  O1  UNK     1      18.857  10.710 -16.931  1.00  0.00    -0.347 OA
ATOM      6  C8  UNK     1      18.477   9.726 -16.061  1.00  0.00     0.213 C 
ATOM      7  C9  UNK     1      19.111   8.416 -15.964  1.00  0.00     0.265 C 
ATOM      8  C10 UNK     1      19.934   8.217 -14.648  1.00  0.00     0.165 C 
ATOM      9  N4  UNK     1      20.340   6.829 -14.575  1.00  0.00    -0.330 N 
ATOM     10  C11 UNK     1      20.743   6.298 -13.336  1.00  0.00     0.318 C 
ATOM     11  O2  UNK     1      21.102   5.077 -13.242  1.00  0.00    -0.247 OA
ATOM     12  N5  UNK     1      20.752   7.117 -12.184  1.00  0.00    -0.338 N 
ATOM     13  C15 UNK     1      20.327   6.024 -15.771  1.00  0.00     0.158 C 
ATOM     14  C16 UNK     1      18.909   6.058 -16.336  1.00  0.00     0.293 C 
ATOM     15  N6  UNK     1      18.230   7.217 -16.028  1.00  0.00     0.107 N 
ATOM     16  C17 UNK     1      17.007   7.570 -16.714  1.00  0.00     0.375 C 
ATOM     17  C18 UNK     1      17.433   8.516 -17.815  1.00  0.00     0.250 C 
ATOM     18  O3  UNK     1      16.547   9.386 -18.123  1.00  0.00    -0.271 OA
ATOM     19  N7  UNK     1      18.600   8.661 -18.545  1.00  0.00    -0.323 N 
ATOM     20  C19 UNK     1      18.893   9.898 -19.245  1.00  0.00     0.069 A 
ATOM     21  C20 UNK     1      19.068  10.159 -20.532  1.00  0.00     0.048 A 
ATOM     22  H12 UNK     1      20.462   8.141 -12.218  1.00  0.00     0.164 HD
ATOM     23  H24 UNK     1      19.254   7.933 -18.845  1.00  0.00     0.169 HD
ENDROOT
BRANCH  12  24
ATOM     24  C12 UNK     1      21.168   6.558 -10.915  1.00  0.00     0.086 A 
ATOM     25  C13 UNK     1      20.477   7.119  -9.714  1.00  0.00     0.027 A 
ATOM     26  C14 UNK     1      21.894   7.460  -9.940  1.00  0.00     0.027 A 
ENDBRANCH  12  24
BRANCH   1  27
ATOM     27  C3  UNK     1      19.550  11.690 -22.425  1.00  0.00     0.157 A 
ATOM     28  N1  UNK     1      18.603  11.955 -23.338  1.00  0.00    -0.255 N 
ATOM     29  C1  UNK     1      17.186  12.025 -23.079  1.00  0.00     0.182 C 
ATOM     30  N2  UNK     1      19.189  12.146 -24.531  1.00  0.00    -0.164 NA
ATOM     31  C2  UNK     1      20.509  12.004 -24.390  1.00  0.00     0.257 A 
ATOM     32  N3  UNK     1      20.720  11.722 -23.083  1.00  0.00    -0.220 NA
ENDBRANCH   1  27
TORSDOF 2
