REMARK  5 active torsions:
REMARK  status: ('A' for Active; 'I' for Inactive)
REMARK    1  A    between atoms: C3_3  and  C4_4 
REMARK    2  A    between atoms: C4_4  and  O2_6 
REMARK    3  A    between atoms: O2_6  and  C5_7 
REMARK    4  A    between atoms: C5_7  and  C6_8 
REMARK    5  A    between atoms: C10_13  and  C11_14 
ROOT
ATOM      1  C1  UNK     1       0.008  -1.281  -0.753  1.00  0.00     0.069 C 
ATOM      2  C2  UNK     1      -1.285  -0.605  -1.143  1.00  0.00     0.018 A 
ATOM      3  C3  UNK     1      -1.274   0.693  -1.268  1.00  0.00     0.052 A 
ATOM      4  C10 UNK     1      -2.537   1.398  -1.647  1.00  0.00     0.104 A 
ATOM      5  C20 UNK     1      -3.685   0.522  -1.866  1.00  0.00     0.024 A 
ATOM      6  C21 UNK     1      -3.642  -0.783  -1.726  1.00  0.00     0.020 A 
ATOM      7  C22 UNK     1      -4.822  -1.683  -1.950  1.00  0.00     0.058 C 
ATOM      8  C23 UNK     1      -5.942  -1.041  -2.691  1.00  0.00     0.014 C 
ATOM      9  C24 UNK     1      -6.196   0.317  -2.032  1.00  0.00     0.084 C 
ATOM     10  C25 UNK     1      -4.954   1.112  -2.270  1.00  0.00     0.158 C 
ATOM     11  O6  UNK     1      -5.088   2.237  -2.802  1.00  0.00    -0.293 OA
ATOM     12  N1  UNK     1      -2.441  -1.430  -1.356  1.00  0.00    -0.362 N 
ATOM     13  H25 UNK     1      -2.347  -2.446  -1.231  1.00  0.00     0.165 HD
ENDROOT
BRANCH   4  14
ATOM     14  C11 UNK     1      -2.844   2.454  -0.635  1.00  0.00     0.029 A 
ATOM     15  C12 UNK     1      -3.159   3.721  -1.045  1.00  0.00     0.154 A 
ATOM     16  O4  UNK     1      -3.420   4.682  -0.169  1.00  0.00    -0.321 OA
ATOM     17  C13 UNK     1      -3.399   4.509   1.118  1.00  0.00     0.089 A 
ATOM     18  C14 UNK     1      -3.675   5.528   2.014  1.00  0.00     0.038 A 
ATOM     19  C18 UNK     1      -3.086   3.248   1.592  1.00  0.00     0.048 A 
ATOM     20  C15 UNK     1      -3.639   5.291   3.366  1.00  0.00     0.003 A 
ATOM     21  C16 UNK     1      -3.325   4.026   3.825  1.00  0.00     0.001 A 
ATOM     22  C17 UNK     1      -3.046   2.993   2.940  1.00  0.00     0.018 A 
ATOM     23  C19 UNK     1      -2.806   2.209   0.717  1.00  0.00     0.194 A 
ATOM     24  O5  UNK     1      -2.518   1.050   1.109  1.00  0.00    -0.287 OA
ENDBRANCH   4  14
BRANCH   3  25
ATOM     25  C4  UNK     1      -0.056   1.498  -1.044  1.00  0.00     0.292 C 
ATOM     26  O1  UNK     1      -0.128   2.762  -1.187  1.00  0.00    -0.259 OA
BRANCH  25  27
ATOM     27  O2  UNK     1       1.169   1.008  -0.690  1.00  0.00    -0.315 OA
BRANCH  27  28
ATOM     28  C5  UNK     1       2.320   1.766  -0.478  1.00  0.00     0.211 C 
BRANCH  28  29
ATOM     29  C6  UNK     1       2.774   2.557  -1.651  1.00  0.00     0.145 C 
ATOM     30  C7  UNK     1       4.140   3.163  -1.300  1.00  0.00     0.036 C 
ATOM     31  C8  UNK     1       4.602   3.593  -2.689  1.00  0.00     0.029 C 
ATOM     32  C9  UNK     1       3.731   2.768  -3.588  1.00  0.00     0.168 C 
ATOM     33  O3  UNK     1       3.081   1.825  -2.770  1.00  0.00    -0.384 OA
ENDBRANCH  28  29
ENDBRANCH  27  28
ENDBRANCH  25  27
ENDBRANCH   3  25
TORSDOF 5
