REMARK  5 active torsions:
REMARK  status: ('A' for Active; 'I' for Inactive)
REMARK    1  A    between atoms: C3_3  and  C4_4 
REMARK    2  A    between atoms: C4_4  and  O2_6 
REMARK    3  A    between atoms: O2_6  and  C5_7 
REMARK    4  A    between atoms: C5_7  and  C6_8 
REMARK    5  A    between atoms: C10_13  and  C11_14 
ROOT
ATOM      1  C1  UNK     1      20.794   9.726 -14.268  1.00  0.00     0.069 C 
ATOM      2  C2  UNK     1      19.727  10.290 -15.138  1.00  0.00     0.018 A 
ATOM      3  C3  UNK     1      18.919   9.551 -15.848  1.00  0.00     0.052 A 
ATOM      4  C10 UNK     1      17.889  10.154 -16.690  1.00  0.00     0.104 A 
ATOM      5  C21 UNK     1      17.834  11.608 -16.658  1.00  0.00     0.024 A 
ATOM      6  C22 UNK     1      18.653  12.336 -15.940  1.00  0.00     0.020 A 
ATOM      7  C23 UNK     1      18.521  13.837 -15.969  1.00  0.00     0.058 C 
ATOM      8  C24 UNK     1      18.384  14.305 -17.397  1.00  0.00     0.014 C 
ATOM      9  C25 UNK     1      17.217  13.642 -18.092  1.00  0.00     0.084 C 
ATOM     10  C26 UNK     1      16.841  12.366 -17.442  1.00  0.00     0.158 C 
ATOM     11  O6  UNK     1      15.696  11.911 -17.540  1.00  0.00    -0.293 OA
ATOM     12  N1  UNK     1      19.647  11.722 -15.138  1.00  0.00    -0.362 N 
ATOM     13  H27 UNK     1      20.298  12.317 -14.566  1.00  0.00     0.165 HD
ENDROOT
BRANCH   4  14
ATOM     14  C11 UNK     1      17.912   9.604 -18.076  1.00  0.00     0.029 A 
ATOM     15  C12 UNK     1      16.765   9.204 -18.721  1.00  0.00     0.154 A 
ATOM     16  O4  UNK     1      16.725   8.711 -19.925  1.00  0.00    -0.321 OA
ATOM     17  C13 UNK     1      17.827   8.567 -20.611  1.00  0.00     0.089 A 
ATOM     18  C14 UNK     1      17.785   8.040 -21.902  1.00  0.00     0.039 A 
ATOM     19  C19 UNK     1      19.029   8.943 -20.044  1.00  0.00     0.049 A 
ATOM     20  C15 UNK     1      18.976   7.913 -22.572  1.00  0.00     0.009 A 
ATOM     21  C16 UNK     1      20.181   8.285 -22.015  1.00  0.00    -0.061 A 
ATOM     22  C17 UNK     1      21.427   8.112 -22.817  1.00  0.00     0.048 C 
ATOM     23  C18 UNK     1      20.197   8.797 -20.757  1.00  0.00     0.025 A 
ATOM     24  C20 UNK     1      19.098   9.470 -18.764  1.00  0.00     0.194 A 
ATOM     25  O5  UNK     1      20.183   9.817 -18.235  1.00  0.00    -0.287 OA
ENDBRANCH   4  14
BRANCH   3  26
ATOM     26  C4  UNK     1      19.049   8.104 -15.801  1.00  0.00     0.292 C 
ATOM     27  O1  UNK     1      18.244   7.397 -16.506  1.00  0.00    -0.259 OA
BRANCH  26  28
ATOM     28  O2  UNK     1      19.964   7.416 -15.063  1.00  0.00    -0.315 OA
BRANCH  28  29
ATOM     29  C5  UNK     1      19.995   6.005 -15.098  1.00  0.00     0.211 C 
BRANCH  29  30
ATOM     30  C6  UNK     1      21.082   5.440 -14.210  1.00  0.00     0.145 C 
ATOM     31  C7  UNK     1      20.834   5.767 -12.753  1.00  0.00     0.036 C 
ATOM     32  C8  UNK     1      20.629   4.392 -12.104  1.00  0.00     0.029 C 
ATOM     33  C9  UNK     1      20.178   3.591 -13.332  1.00  0.00     0.168 C 
ATOM     34  O3  UNK     1      21.064   4.048 -14.286  1.00  0.00    -0.384 OA
ENDBRANCH  29  30
ENDBRANCH  28  29
ENDBRANCH  26  28
ENDBRANCH   3  26
TORSDOF 5
