REMARK  2 active torsions:
REMARK  status: ('A' for Active; 'I' for Inactive)
REMARK    1  A    between atoms: O1_2  and  C2_3 
REMARK    2  A    between atoms: C7_10  and  O2_12 
ROOT
ATOM      1  C2  UNK     1       4.796  -3.728  16.007  1.00  0.00     0.178 C 
ATOM      2  N1  UNK     1       6.070  -3.807  15.681  1.00  0.00    -0.255 NA
ATOM      3  C3  UNK     1       6.452  -2.614  14.876  1.00  0.00     0.088 C 
ATOM      4  C4  UNK     1       6.414  -1.486  15.874  1.00  0.00     0.307 C 
ATOM      5  N2  UNK     1       5.248  -1.560  16.701  1.00  0.00     0.112 N 
ATOM      6  C5  UNK     1       4.554  -0.336  16.902  1.00  0.00     0.277 C 
ATOM      7  C6  UNK     1       3.096  -0.727  17.173  1.00  0.00     0.071 C 
ATOM      8  C7  UNK     1       2.953  -2.135  16.578  1.00  0.00     0.100 C 
ATOM      9  C8  UNK     1       2.538  -3.129  17.625  1.00  0.00     0.049 C 
ATOM     10  C9  UNK     1       4.256  -2.360  15.959  1.00  0.00     0.255 C 
ATOM     11  C10 UNK     1       4.224  -1.823  14.511  1.00  0.00     0.062 C 
ATOM     12  C11 UNK     1       5.339  -2.554  13.854  1.00  0.00     0.030 C 
ATOM     13  C12 UNK     1       5.942  -2.076  12.630  1.00  0.00    -0.021 C 
ATOM     14  C13 UNK     1       5.185  -2.732  11.446  1.00  0.00     0.017 C 
ATOM     15  C14 UNK     1       5.989  -0.627  12.364  1.00  0.00     0.017 C 
ATOM     16  C15 UNK     1       7.327  -2.703  12.691  1.00  0.00     0.080 A 
ATOM     17  C16 UNK     1       7.724  -2.758  14.153  1.00  0.00     0.060 C 
ATOM     18  C17 UNK     1       7.166  -4.066  12.130  1.00  0.00     0.236 A 
ATOM     19  O3  UNK     1       6.468  -4.988  12.644  1.00  0.00    -0.272 OA
ATOM     20  N3  UNK     1       7.929  -4.120  10.942  1.00  0.00    -0.325 N 
ATOM     21  C18 UNK     1       8.630  -2.875  10.801  1.00  0.00     0.059 A 
ATOM     22  C19 UNK     1       8.326  -2.050  11.853  1.00  0.00    -0.011 A 
ATOM     23  C20 UNK     1       8.981  -0.810  11.886  1.00  0.00     0.013 A 
ATOM     24  C21 UNK     1       9.878  -0.458  10.900  1.00  0.00     0.038 A 
ATOM     25  C22 UNK     1      10.150  -1.312   9.865  1.00  0.00     0.086 A 
ATOM     26  C23 UNK     1       9.521  -2.547   9.803  1.00  0.00     0.070 A 
ATOM     27  C24 UNK     1       9.849  -3.426   8.676  1.00  0.00     0.167 C 
ATOM     28  O4  UNK     1       9.720  -4.658   8.843  1.00  0.00    -0.292 OA
ATOM     29  C25 UNK     1      10.313  -2.884   7.393  1.00  0.00     0.122 C 
ATOM     30  C26 UNK     1      10.790  -1.456   7.498  1.00  0.00     0.067 C 
ATOM     31  C27 UNK     1       9.751  -0.559   6.856  1.00  0.00     0.046 C 
ATOM     32  C28 UNK     1      12.061  -1.332   6.686  1.00  0.00     0.046 C 
ATOM     33  O5  UNK     1      11.037  -1.041   8.828  1.00  0.00    -0.340 OA
ATOM     34  H25 UNK     1       7.959  -4.943  10.291  1.00  0.00     0.169 HD
ENDROOT
BRANCH   1  35
ATOM     35  O1  UNK     1       4.155  -4.881  16.336  1.00  0.00    -0.341 OA
ATOM     36  C1  UNK     1       4.847  -6.004  16.895  1.00  0.00     0.211 C 
ENDBRANCH   1  35
BRANCH   8  37
ATOM     37  O2  UNK     1       1.955  -2.078  15.620  1.00  0.00    -0.387 OA
ATOM     38  H13 UNK     1       1.151  -1.617  15.966  1.00  0.00     0.210 HD
ENDBRANCH   8  37
TORSDOF 2
