REMARK  2 active torsions:
REMARK  status: ('A' for Active; 'I' for Inactive)
REMARK    1  A    between atoms: C9_10  and  O1_11 
REMARK    2  A    between atoms: C27_32  and  O4_33 
ROOT
ATOM      1  C1  UNK     1      16.796  12.117 -22.244  1.00  0.00     0.013 C 
ATOM      2  C2  UNK     1      17.757  10.985 -22.057  1.00  0.00     0.030 C 
ATOM      3  C3  UNK     1      19.086  11.248 -22.781  1.00  0.00     0.037 C 
ATOM      4  C4  UNK     1      20.114  11.409 -21.654  1.00  0.00     0.274 C 
ATOM      5  N1  UNK     1      19.389  11.654 -20.463  1.00  0.00     0.109 N 
ATOM      6  C5  UNK     1      20.006  11.238 -19.248  1.00  0.00     0.307 C 
ATOM      7  C6  UNK     1      18.965  10.638 -18.331  1.00  0.00     0.088 C 
ATOM      8  C7  UNK     1      19.414  10.417 -16.952  1.00  0.00     0.059 C 
ATOM      9  C8  UNK     1      19.063   8.939 -16.688  1.00  0.00     0.066 A 
ATOM     10  C9  UNK     1      17.756   8.976 -16.038  1.00  0.00     0.152 A 
ATOM     11  N2  UNK     1      17.872   8.557 -14.840  1.00  0.00    -0.226 NA
ATOM     12  C10 UNK     1      19.221   8.207 -14.562  1.00  0.00     0.083 A 
ATOM     13  C11 UNK     1      19.967   8.441 -15.695  1.00  0.00    -0.011 A 
ATOM     14  C12 UNK     1      21.322   8.151 -15.582  1.00  0.00     0.013 A 
ATOM     15  C13 UNK     1      21.870   7.665 -14.418  1.00  0.00     0.038 A 
ATOM     16  C14 UNK     1      21.090   7.445 -13.310  1.00  0.00     0.086 A 
ATOM     17  C15 UNK     1      19.757   7.712 -13.366  1.00  0.00     0.072 A 
ATOM     18  C16 UNK     1      18.898   7.489 -12.204  1.00  0.00     0.167 C 
ATOM     19  O2  UNK     1      17.661   7.456 -12.389  1.00  0.00    -0.292 OA
ATOM     20  C17 UNK     1      19.563   7.319 -10.892  1.00  0.00     0.122 C 
ATOM     21  C18 UNK     1      20.759   6.414 -11.103  1.00  0.00     0.067 C 
ATOM     22  C19 UNK     1      20.243   5.040 -11.444  1.00  0.00     0.046 C 
ATOM     23  C20 UNK     1      21.566   6.330  -9.805  1.00  0.00     0.046 C 
ATOM     24  O3  UNK     1      21.594   6.953 -12.104  1.00  0.00    -0.340 OA
ATOM     25  C21 UNK     1      19.042   8.271 -18.032  1.00  0.00    -0.022 C 
ATOM     26  C22 UNK     1      20.309   7.667 -18.469  1.00  0.00     0.017 C 
ATOM     27  C23 UNK     1      18.024   7.114 -17.908  1.00  0.00     0.017 C 
ATOM     28  C24 UNK     1      18.432   9.308 -18.850  1.00  0.00     0.030 C 
ATOM     29  C25 UNK     1      18.609   9.374 -20.317  1.00  0.00     0.059 C 
ATOM     30  C26 UNK     1      18.190  10.820 -20.658  1.00  0.00     0.228 C 
ATOM     31  C27 UNK     1      17.225  11.351 -19.642  1.00  0.00     0.174 C 
ATOM     32  N3  UNK     1      17.797  11.539 -18.467  1.00  0.00    -0.255 NA
ENDROOT
BRANCH  10  33
ATOM     33  O1  UNK     1      16.511   9.380 -16.532  1.00  0.00    -0.347 OA
ATOM     34  H13 UNK     1      15.675   8.921 -16.222  1.00  0.00     0.219 HD
ENDBRANCH  10  33
BRANCH  31  35
ATOM     35  O4  UNK     1      15.903  11.612 -19.900  1.00  0.00    -0.346 OA
ATOM     36  H33 UNK     1      15.339  12.028 -19.162  1.00  0.00     0.219 HD
ENDBRANCH  31  35
TORSDOF 2
