REMARK  6 active torsions:
REMARK  status: ('A' for Active; 'I' for Inactive)
REMARK    1  A    between atoms: C2_2  and  N1_4 
REMARK       I    between atoms: N1_4  and  C4_5 
REMARK       I    between atoms: C4_5  and  N2_7 
REMARK    2  A    between atoms: N2_7  and  C5_8 
REMARK    3  A    between atoms: C5_8  and  C6_9 
REMARK    4  A    between atoms: C9_13  and  C10_14 
REMARK    5  A    between atoms: C10_14  and  C11_15 
REMARK       I    between atoms: C11_15  and  N3_17 
REMARK    6  A    between atoms: C17_27  and  O7_28 
ROOT
ATOM      1  C6  UNK     1      18.823   9.583 -18.150  1.00  0.00     0.171 C 
ATOM      2  O2  UNK     1      18.957   8.234 -18.518  1.00  0.00    -0.373 OA
ATOM      3  C7  UNK     1      20.250   7.885 -18.145  1.00  0.00     0.156 C 
ATOM      4  C8  UNK     1      20.307   7.254 -16.779  1.00  0.00     0.067 C 
ATOM      5  C9  UNK     1      21.159   8.191 -15.984  1.00  0.00     0.133 C 
ATOM      6  O6  UNK     1      21.063   9.394 -16.664  1.00  0.00    -0.375 OA
ATOM      7  C16 UNK     1      21.068   9.143 -18.011  1.00  0.00     0.182 C 
ATOM      8  C17 UNK     1      20.088  10.146 -18.708  1.00  0.00     0.180 C 
ENDROOT
BRANCH   5   9
ATOM      9  C10 UNK     1      20.639   8.359 -14.581  1.00  0.00     0.135 C 
BRANCH   9  10
ATOM     10  C11 UNK     1      20.621   7.055 -13.882  1.00  0.00     0.222 C 
ATOM     11  O3  UNK     1      21.020   6.046 -14.513  1.00  0.00    -0.273 OA
ATOM     12  N3  UNK     1      20.173   6.918 -12.540  1.00  0.00    -0.350 N 
ATOM     13  C12 UNK     1      20.169   5.643 -11.895  1.00  0.00     0.140 C 
ATOM     14  C15 UNK     1      19.716   8.093 -11.824  1.00  0.00     0.140 C 
ATOM     15  C13 UNK     1      21.156   5.585 -10.732  1.00  0.00     0.160 C 
ATOM     16  S1  UNK     1      20.665   6.894  -9.610  1.00  0.00     0.147 S 
ATOM     17  O4  UNK     1      21.793   7.814  -9.313  1.00  0.00    -0.228 OA
ATOM     18  O5  UNK     1      20.178   6.216  -8.351  1.00  0.00    -0.228 OA
ATOM     19  C14 UNK     1      19.308   7.750 -10.410  1.00  0.00     0.160 C 
ENDBRANCH   9  10
ENDBRANCH   5   9
BRANCH   8  20
ATOM     20  O7  UNK     1      20.407  11.416 -18.303  1.00  0.00    -0.390 OA
ATOM     21  H29 UNK     1      20.789  11.924 -19.088  1.00  0.00     0.210 HD
ENDBRANCH   8  20
BRANCH   1  22
ATOM     22  C5  UNK     1      17.538  10.192 -18.462  1.00  0.00     0.159 C 
BRANCH  22  23
ATOM     23  N2  UNK     1      17.052  10.270 -19.784  1.00  0.00    -0.341 N 
ATOM     24  C4  UNK     1      17.576  10.988 -20.886  1.00  0.00     0.316 C 
ATOM     25  N1  UNK     1      16.953  10.919 -22.186  1.00  0.00    -0.339 N 
ATOM     26  O1  UNK     1      18.597  11.697 -20.734  1.00  0.00    -0.247 OA
ATOM     27  H8  UNK     1      16.103  10.338 -22.345  1.00  0.00     0.164 HD
ATOM     28  H9  UNK     1      16.157   9.719 -20.035  1.00  0.00     0.164 HD
BRANCH  25  29
ATOM     29  C2  UNK     1      17.504  11.661 -23.300  1.00  0.00     0.078 C 
ATOM     30  C1  UNK     1      17.916  10.743 -24.431  1.00  0.00     0.032 C 
ATOM     31  C3  UNK     1      16.497  12.696 -23.807  1.00  0.00     0.032 C 
ENDBRANCH  25  29
ENDBRANCH  22  23
ENDBRANCH   1  22
TORSDOF 6
