REMARK  5 active torsions:
REMARK  status: ('A' for Active; 'I' for Inactive)
REMARK    1  A    between atoms: C3_3  and  C4_4 
REMARK    2  A    between atoms: C4_4  and  O2_6 
REMARK    3  A    between atoms: O2_6  and  C5_7 
REMARK    4  A    between atoms: C5_7  and  C6_8 
REMARK    5  A    between atoms: C10_13  and  C11_14 
ROOT
ATOM      1  C1  UNK     1       1.620   2.451  -1.050  1.00  0.00     0.069 C 
ATOM      2  C2  UNK     1       0.234   3.035  -1.120  1.00  0.00     0.018 A 
ATOM      3  C3  UNK     1      -0.623   2.459  -1.940  1.00  0.00     0.052 A 
ATOM      4  C10 UNK     1      -1.990   2.989  -2.045  1.00  0.00     0.104 A 
ATOM      5  C21 UNK     1      -2.262   4.154  -1.199  1.00  0.00     0.024 A 
ATOM      6  C22 UNK     1      -1.386   4.706  -0.391  1.00  0.00     0.021 A 
ATOM      7  C23 UNK     1      -1.722   5.894   0.447  1.00  0.00     0.067 C 
ATOM      8  C24 UNK     1      -3.117   5.860   0.978  1.00  0.00    -0.036 C 
ATOM      9  C25 UNK     1      -3.121   4.953   2.204  1.00  0.00     0.015 C 
ATOM     10  C26 UNK     1      -3.528   7.244   1.497  1.00  0.00     0.015 C 
ATOM     11  C27 UNK     1      -4.128   5.345   0.017  1.00  0.00     0.092 C 
ATOM     12  C28 UNK     1      -3.582   4.783  -1.225  1.00  0.00     0.159 C 
ATOM     13  O6  UNK     1      -4.257   4.855  -2.277  1.00  0.00    -0.293 OA
ATOM     14  N1  UNK     1      -0.078   4.162  -0.314  1.00  0.00    -0.362 N 
ATOM     15  H31 UNK     1       0.647   4.594   0.334  1.00  0.00     0.165 HD
ENDROOT
BRANCH   4  16
ATOM     16  C11 UNK     1      -3.002   1.894  -1.890  1.00  0.00     0.029 A 
ATOM     17  C12 UNK     1      -4.080   1.740  -2.723  1.00  0.00     0.154 A 
ATOM     18  O4  UNK     1      -4.930   0.762  -2.546  1.00  0.00    -0.321 OA
ATOM     19  C13 UNK     1      -4.828  -0.126  -1.586  1.00  0.00     0.089 A 
ATOM     20  C14 UNK     1      -5.777  -1.124  -1.480  1.00  0.00     0.039 A 
ATOM     21  C19 UNK     1      -3.766  -0.035  -0.706  1.00  0.00     0.049 A 
ATOM     22  C15 UNK     1      -5.669  -2.062  -0.467  1.00  0.00     0.009 A 
ATOM     23  C16 UNK     1      -4.607  -1.991   0.433  1.00  0.00    -0.061 A 
ATOM     24  C17 UNK     1      -4.543  -3.025   1.499  1.00  0.00     0.048 C 
ATOM     25  C18 UNK     1      -3.667  -0.984   0.308  1.00  0.00     0.025 A 
ATOM     26  C20 UNK     1      -2.849   0.983  -0.863  1.00  0.00     0.194 A 
ATOM     27  O5  UNK     1      -1.876   1.059  -0.049  1.00  0.00    -0.287 OA
ENDBRANCH   4  16
BRANCH   3  28
ATOM     28  C4  UNK     1      -0.262   1.288  -2.767  1.00  0.00     0.292 C 
ATOM     29  O1  UNK     1      -1.124   0.783  -3.533  1.00  0.00    -0.259 OA
BRANCH  28  30
ATOM     30  O2  UNK     1       0.970   0.691  -2.767  1.00  0.00    -0.315 OA
BRANCH  30  31
ATOM     31  C5  UNK     1       1.297  -0.431  -3.568  1.00  0.00     0.211 C 
BRANCH  31  32
ATOM     32  C6  UNK     1       2.712  -0.883  -3.362  1.00  0.00     0.145 C 
ATOM     33  C7  UNK     1       2.964  -1.398  -1.959  1.00  0.00     0.036 C 
ATOM     34  C8  UNK     1       4.444  -1.016  -1.784  1.00  0.00     0.029 C 
ATOM     35  C9  UNK     1       4.470   0.279  -2.557  1.00  0.00     0.168 C 
ATOM     36  O3  UNK     1       3.668   0.049  -3.655  1.00  0.00    -0.384 OA
ENDBRANCH  31  32
ENDBRANCH  30  31
ENDBRANCH  28  30
ENDBRANCH   3  28
TORSDOF 5
