REMARK  5 active torsions:
REMARK  status: ('A' for Active; 'I' for Inactive)
REMARK    1  A    between atoms: C3_3  and  C4_4 
REMARK    2  A    between atoms: C4_4  and  O2_6 
REMARK    3  A    between atoms: O2_6  and  C5_7 
REMARK    4  A    between atoms: C5_7  and  C6_8 
REMARK    5  A    between atoms: C10_13  and  C11_14 
ROOT
ATOM      1  C1  UNK     1       0.300  -0.916  -2.785  1.00  0.00     0.069 C 
ATOM      2  C2  UNK     1      -0.735  -0.635  -1.730  1.00  0.00     0.018 A 
ATOM      3  C3  UNK     1      -0.837   0.501  -1.107  1.00  0.00     0.052 A 
ATOM      4  C10 UNK     1      -1.858   0.739  -0.093  1.00  0.00     0.104 A 
ATOM      5  C20 UNK     1      -2.725  -0.401   0.172  1.00  0.00     0.024 A 
ATOM      6  C21 UNK     1      -2.601  -1.538  -0.471  1.00  0.00     0.020 A 
ATOM      7  C22 UNK     1      -3.563  -2.641  -0.101  1.00  0.00     0.058 C 
ATOM      8  C23 UNK     1      -4.954  -2.004  -0.188  1.00  0.00     0.014 C 
ATOM      9  C24 UNK     1      -5.087  -0.956   0.909  1.00  0.00     0.084 C 
ATOM     10  C25 UNK     1      -3.791  -0.319   1.200  1.00  0.00     0.158 C 
ATOM     11  O6  UNK     1      -3.579   0.266   2.255  1.00  0.00    -0.293 OA
ATOM     12  N1  UNK     1      -1.615  -1.744  -1.456  1.00  0.00    -0.362 N 
ATOM     13  H25 UNK     1      -1.545  -2.651  -1.944  1.00  0.00     0.165 HD
ENDROOT
BRANCH   4  14
ATOM     14  C11 UNK     1      -2.602   2.004  -0.322  1.00  0.00     0.029 A 
ATOM     15  C12 UNK     1      -2.819   2.871   0.721  1.00  0.00     0.154 A 
ATOM     16  O4  UNK     1      -3.477   4.017   0.546  1.00  0.00    -0.321 OA
ATOM     17  C13 UNK     1      -3.954   4.387  -0.618  1.00  0.00     0.089 A 
ATOM     18  C14 UNK     1      -4.640   5.593  -0.775  1.00  0.00     0.038 A 
ATOM     19  C18 UNK     1      -3.754   3.541  -1.687  1.00  0.00     0.048 A 
ATOM     20  C15 UNK     1      -5.103   5.896  -2.033  1.00  0.00     0.003 A 
ATOM     21  C16 UNK     1      -4.898   5.044  -3.095  1.00  0.00     0.001 A 
ATOM     22  C17 UNK     1      -4.221   3.848  -2.952  1.00  0.00     0.018 A 
ATOM     23  C19 UNK     1      -3.079   2.345  -1.554  1.00  0.00     0.194 A 
ATOM     24  O5  UNK     1      -2.882   1.556  -2.507  1.00  0.00    -0.287 OA
ENDBRANCH   4  14
BRANCH   3  25
ATOM     25  C4  UNK     1       0.122   1.581  -1.456  1.00  0.00     0.292 C 
ATOM     26  O1  UNK     1       0.970   1.361  -2.314  1.00  0.00    -0.259 OA
BRANCH  25  27
ATOM     27  O2  UNK     1       0.048   2.783  -0.826  1.00  0.00    -0.315 OA
BRANCH  27  28
ATOM     28  C5  UNK     1       0.877   3.867  -1.029  1.00  0.00     0.211 C 
BRANCH  28  29
ATOM     29  C6  UNK     1       2.269   3.852  -0.597  1.00  0.00     0.145 C 
ATOM     30  C7  UNK     1       3.282   2.966  -1.205  1.00  0.00     0.036 C 
ATOM     31  C8  UNK     1       4.483   3.332  -0.294  1.00  0.00     0.029 C 
ATOM     32  C9  UNK     1       3.765   3.500   1.021  1.00  0.00     0.168 C 
ATOM     33  O3  UNK     1       2.410   3.688   0.789  1.00  0.00    -0.384 OA
ENDBRANCH  28  29
ENDBRANCH  27  28
ENDBRANCH  25  27
ENDBRANCH   3  25
TORSDOF 5
