REMARK  6 active torsions:
REMARK  status: ('A' for Active; 'I' for Inactive)
REMARK    1  A    between atoms: O1_2  and  C2_3 
REMARK    2  A    between atoms: C2_3  and  C3_4 
REMARK    3  A    between atoms: C5_6  and  N1_7 
REMARK    4  A    between atoms: C7_9  and  N2_10 
REMARK    5  A    between atoms: N2_10  and  S1_11 
REMARK       I    between atoms: N4_18  and  C11_19 
REMARK       I    between atoms: C11_19  and  N5_21 
REMARK    6  A    between atoms: N5_21  and  C12_22 
ROOT
ATOM      1  C3  UNK     1      -1.993   3.459   0.656  1.00  0.00     0.114 C 
ATOM      2  C4  UNK     1      -0.762   3.373  -0.179  1.00  0.00     0.056 C 
ATOM      3  C5  UNK     1      -0.252   1.973   0.183  1.00  0.00     0.129 C 
ATOM      4  C10 UNK     1      -1.521   1.205   0.375  1.00  0.00     0.155 C 
ATOM      5  N4  UNK     1      -2.612   2.168   0.421  1.00  0.00    -0.325 N 
ATOM      6  C11 UNK     1      -3.980   1.845   0.261  1.00  0.00     0.319 C 
ATOM      7  O4  UNK     1      -4.879   2.722   0.310  1.00  0.00    -0.247 OA
ATOM      8  N5  UNK     1      -4.344   0.494   0.039  1.00  0.00    -0.339 N 
ATOM      9  H18 UNK     1      -3.605  -0.270  -0.007  1.00  0.00     0.164 HD
ENDROOT
BRANCH   3  10
ATOM     10  N1  UNK     1       0.622   1.437  -0.803  1.00  0.00    -0.273 N 
ATOM     11  C6  UNK     1       1.501   2.135  -1.538  1.00  0.00     0.144 A 
ATOM     12  C7  UNK     1       2.171   1.252  -2.391  1.00  0.00     0.078 A 
ATOM     13  C9  UNK     1       1.640   0.014  -2.115  1.00  0.00     0.170 A 
ATOM     14  N3  UNK     1       0.711   0.169  -1.154  1.00  0.00    -0.182 NA
BRANCH  12  15
ATOM     15  N2  UNK     1       3.178   1.613  -3.324  1.00  0.00    -0.282 N 
ATOM     16  H11 UNK     1       3.041   2.449  -3.931  1.00  0.00     0.178 HD
BRANCH  15  17
ATOM     17  S1  UNK     1       4.634   0.671  -3.460  1.00  0.00     0.227 S 
ATOM     18  C8  UNK     1       5.529   0.695  -1.912  1.00  0.00     0.186 C 
ATOM     19  O2  UNK     1       5.526   1.300  -4.492  1.00  0.00    -0.206 OA
ATOM     20  O3  UNK     1       4.278  -0.737  -3.850  1.00  0.00    -0.206 OA
ENDBRANCH  15  17
ENDBRANCH  12  15
ENDBRANCH   3  10
BRANCH   1  21
ATOM     21  C2  UNK     1      -2.889   4.610   0.345  1.00  0.00     0.192 C 
BRANCH  21  22
ATOM     22  O1  UNK     1      -3.322   4.666  -0.953  1.00  0.00    -0.394 OA
ATOM     23  C1  UNK     1      -4.149   5.804  -1.068  1.00  0.00     0.201 C 
ENDBRANCH  21  22
ENDBRANCH   1  21
BRANCH   8  24
ATOM     24  C12 UNK     1      -5.717   0.066  -0.136  1.00  0.00     0.078 C 
ATOM     25  C13 UNK     1      -5.983  -0.563  -1.463  1.00  0.00     0.032 C 
ATOM     26  C14 UNK     1      -6.158  -0.842   1.006  1.00  0.00     0.032 C 
ENDBRANCH   8  24
TORSDOF 6
