REMARK  5 active torsions:
REMARK  status: ('A' for Active; 'I' for Inactive)
REMARK    1  A    between atoms: C3_4  and  N2_5 
REMARK    2  A    between atoms: N2_5  and  C4_6 
REMARK    3  A    between atoms: C6_9  and  C7_10 
REMARK       I    between atoms: C7_10  and  N4_12 
REMARK    4  A    between atoms: N4_12  and  C8_13 
REMARK    5  A    between atoms: C16_23  and  N5_24 
ROOT
ATOM      1  C4  UNK     1       1.388  -1.411   4.608  1.00  0.00     0.172 A 
ATOM      2  N3  UNK     1       1.538  -2.343   3.863  1.00  0.00    -0.235 NA
ATOM      3  C5  UNK     1       2.513  -2.628   3.053  1.00  0.00     0.144 A 
ATOM      4  C6  UNK     1       3.567  -1.703   3.037  1.00  0.00     0.094 A 
ATOM      5  S1  UNK     1       3.000  -0.478   4.247  1.00  0.00    -0.045 SA
ENDROOT
BRANCH   1   6
ATOM      6  N2  UNK     1       0.500  -0.851   5.556  1.00  0.00    -0.320 N 
ATOM      7  H4  UNK     1       0.679   0.035   6.063  1.00  0.00     0.169 HD
BRANCH   6   8
ATOM      8  C3  UNK     1      -0.692  -1.556   5.810  1.00  0.00     0.135 A 
ATOM      9  N1  UNK     1      -0.750  -2.498   6.773  1.00  0.00    -0.216 NA
ATOM     10  C2  UNK     1      -1.851  -3.201   7.062  1.00  0.00     0.126 A 
ATOM     11  C1  UNK     1      -1.797  -4.214   8.144  1.00  0.00     0.093 C 
ATOM     12  N7  UNK     1      -2.985  -2.964   6.354  1.00  0.00    -0.216 NA
ATOM     13  C16 UNK     1      -3.014  -2.042   5.377  1.00  0.00     0.131 A 
ATOM     14  C15 UNK     1      -1.863  -1.337   5.106  1.00  0.00     0.100 A 
BRANCH  13  15
ATOM     15  N5  UNK     1      -4.230  -1.826   4.660  1.00  0.00    -0.362 N 
ATOM     16  C17 UNK     1      -5.423  -2.590   4.970  1.00  0.00     0.154 C 
ATOM     17  C18 UNK     1      -6.237  -2.747   3.707  1.00  0.00     0.289 C 
ATOM     18  N6  UNK     1      -6.694  -1.460   3.259  1.00  0.00     0.086 N 
ATOM     19  C19 UNK     1      -5.797  -0.388   3.584  1.00  0.00     0.289 C 
ATOM     20  H18 UNK     1      -7.613  -1.248   3.716  1.00  0.00     0.316 HD
ATOM     21  C20 UNK     1      -4.334  -0.848   3.600  1.00  0.00     0.154 C 
ENDBRANCH  13  15
ENDBRANCH   6   8
ENDBRANCH   1   6
BRANCH   4  22
ATOM     22  C7  UNK     1       4.801  -1.675   2.282  1.00  0.00     0.264 C 
ATOM     23  O1  UNK     1       5.108  -2.562   1.471  1.00  0.00    -0.267 OA
ATOM     24  N4  UNK     1       5.750  -0.601   2.436  1.00  0.00    -0.320 N 
ATOM     25  H6  UNK     1       5.479   0.141   3.123  1.00  0.00     0.169 HD
BRANCH  24  26
ATOM     26  C8  UNK     1       6.947  -0.596   1.689  1.00  0.00     0.062 A 
ATOM     27  C9  UNK     1       6.980   0.012   0.456  1.00  0.00    -0.034 A 
ATOM     28  C10 UNK     1       5.754   0.667  -0.095  1.00  0.00     0.050 C 
ATOM     29  C11 UNK     1       8.165   0.021  -0.289  1.00  0.00     0.009 A 
ATOM     30  C12 UNK     1       9.301  -0.577   0.203  1.00  0.00     0.002 A 
ATOM     31  C13 UNK     1       9.276  -1.187   1.436  1.00  0.00     0.026 A 
ATOM     32  C14 UNK     1       8.094  -1.188   2.165  1.00  0.00     0.061 A 
ATOM     33 Cl1  UNK     1       8.131  -1.982   3.726  1.00  0.00    -0.082 Cl
ENDBRANCH  24  26
ENDBRANCH   4  22
TORSDOF 5
