REMARK  5 active torsions:
REMARK  status: ('A' for Active; 'I' for Inactive)
REMARK    1  A    between atoms: O1_2  and  C2_3 
REMARK    2  A    between atoms: C2_3  and  C3_5 
REMARK    3  A    between atoms: C3_5  and  C4_6 
REMARK    4  A    between atoms: C7_12  and  N3_13 
REMARK       I    between atoms: N5_20  and  C13_21 
REMARK    5  A    between atoms: C13_21  and  C14_23 
ROOT
ATOM      1  C4  UNK     1      20.537  11.912 -17.504  1.00  0.00     0.049 A 
ATOM      2  C5  UNK     1      19.893  11.274 -18.538  1.00  0.00     0.035 A 
ATOM      3  C6  UNK     1      19.774  12.221 -19.526  1.00  0.00     0.199 A 
ATOM      4  N1  UNK     1      20.342  13.387 -19.074  1.00  0.00    -0.148 NA
ATOM      5  N2  UNK     1      20.796  13.198 -17.869  1.00  0.00    -0.279 N 
ATOM      6  O3  UNK     1      19.172  11.988 -20.758  1.00  0.00    -0.272 OA
ATOM      7  C7  UNK     1      18.682  10.712 -20.951  1.00  0.00     0.161 A 
ATOM      8  C8  UNK     1      18.760   9.756 -20.072  1.00  0.00     0.086 A 
ATOM      9  C9  UNK     1      18.195   8.429 -20.390  1.00  0.00     0.100 C 
ATOM     10  N4  UNK     1      17.742   7.390 -20.651  1.00  0.00    -0.191 NA
ATOM     11  C10 UNK     1      19.416   9.888 -18.750  1.00  0.00     0.037 A 
ATOM     12  C11 UNK     1      18.470   9.365 -17.716  1.00  0.00     0.040 C 
ATOM     13  C12 UNK     1      18.956   8.352 -16.757  1.00  0.00     0.127 C 
ATOM     14  N5  UNK     1      19.781   7.354 -17.344  1.00  0.00    -0.348 N 
ATOM     15  C13 UNK     1      19.916   6.074 -16.756  1.00  0.00     0.253 C 
ATOM     16  O4  UNK     1      20.658   5.178 -17.304  1.00  0.00    -0.267 OA
ATOM     17  C20 UNK     1      20.512   7.624 -18.543  1.00  0.00     0.127 C 
ATOM     18  C21 UNK     1      20.685   9.057 -18.861  1.00  0.00     0.040 C 
ATOM     19  H6  UNK     1      21.286  13.935 -17.277  1.00  0.00     0.189 HD
ENDROOT
BRANCH   7  20
ATOM     20  N3  UNK     1      18.031  10.371 -22.198  1.00  0.00    -0.379 N 
ATOM     21  H7  UNK     1      18.362  10.827 -23.065  1.00  0.00     0.158 HD
ATOM     22  H8  UNK     1      17.255   9.696 -22.234  1.00  0.00     0.158 HD
ENDBRANCH   7  20
BRANCH   1  23
ATOM     23  C3  UNK     1      20.891  11.424 -16.150  1.00  0.00     0.170 C 
BRANCH  23  24
ATOM     24  C2  UNK     1      19.748  11.575 -15.220  1.00  0.00     0.264 C 
ATOM     25  O2  UNK     1      18.704  12.123 -15.635  1.00  0.00    -0.265 OA
BRANCH  24  26
ATOM     26  O1  UNK     1      19.736  11.152 -13.899  1.00  0.00    -0.326 OA
ATOM     27  C1  UNK     1      18.587  11.345 -13.080  1.00  0.00     0.213 C 
ENDBRANCH  24  26
ENDBRANCH  23  24
ENDBRANCH   1  23
BRANCH  15  28
ATOM     28  C14 UNK     1      19.277   5.635 -15.533  1.00  0.00     0.032 A 
ATOM     29  C15 UNK     1      20.004   5.424 -14.383  1.00  0.00     0.017 A 
ATOM     30  C16 UNK     1      19.361   4.983 -13.250  1.00  0.00     0.001 A 
ATOM     31  C17 UNK     1      18.012   4.748 -13.238  1.00  0.00     0.000 A 
ATOM     32  C18 UNK     1      17.268   4.954 -14.375  1.00  0.00     0.001 A 
ATOM     33  C19 UNK     1      17.929   5.398 -15.508  1.00  0.00     0.017 A 
ENDBRANCH  15  28
TORSDOF 5
