REMARK  3 active torsions:
REMARK  status: ('A' for Active; 'I' for Inactive)
REMARK    1  A    between atoms: C7_8  and  N1_9 
REMARK    2  A    between atoms: N1_9  and  C8_10 
REMARK    3  A    between atoms: C12_15  and  N3_16 
ROOT
ATOM      1  C8  UNK     1      20.752   8.785 -14.446  1.00  0.00     0.157 A 
ATOM      2  N2  UNK     1      20.167   7.918 -15.299  1.00  0.00    -0.227 NA
ATOM      3  C9  UNK     1      19.714   8.299 -16.503  1.00  0.00     0.086 A 
ATOM      4  C10 UNK     1      19.119   7.414 -17.370  1.00  0.00     0.036 A 
ATOM      5  C11 UNK     1      18.661   7.837 -18.610  1.00  0.00     0.032 A 
ATOM      6  C12 UNK     1      18.784   9.163 -19.022  1.00  0.00     0.032 A 
ATOM      7  C18 UNK     1      19.387  10.004 -18.116  1.00  0.00     0.061 A 
ATOM      8  C19 UNK     1      19.849   9.603 -16.880  1.00  0.00     0.071 A 
ATOM      9  N5  UNK     1      20.429  10.477 -16.042  1.00  0.00    -0.299 N 
ATOM     10  C20 UNK     1      20.673  11.790 -16.180  1.00  0.00     0.215 A 
ATOM     11  N6  UNK     1      21.277  12.252 -15.076  1.00  0.00    -0.253 NA
ATOM     12  C21 UNK     1      21.409  11.213 -14.243  1.00  0.00     0.151 A 
ATOM     13  C22 UNK     1      20.872  10.087 -14.853  1.00  0.00     0.104 A 
ENDROOT
BRANCH   1  14
ATOM     14  N1  UNK     1      21.220   8.346 -13.178  1.00  0.00    -0.337 N 
ATOM     15  H7  UNK     1      21.664   9.054 -12.558  1.00  0.00     0.167 HD
BRANCH  14  16
ATOM     16  C7  UNK     1      21.081   6.992 -12.783  1.00  0.00     0.061 A 
ATOM     17  C2  UNK     1      19.949   6.581 -12.112  1.00  0.00    -0.034 A 
ATOM     18  C1  UNK     1      18.875   7.532 -11.797  1.00  0.00     0.050 C 
ATOM     19  C3  UNK     1      19.843   5.257 -11.740  1.00  0.00     0.009 A 
ATOM     20  C4  UNK     1      20.830   4.344 -12.020  1.00  0.00     0.002 A 
ATOM     21  C5  UNK     1      21.966   4.744 -12.691  1.00  0.00     0.026 A 
ATOM     22  C6  UNK     1      22.082   6.065 -13.067  1.00  0.00     0.061 A 
ATOM     23 Cl1  UNK     1      23.518   6.625 -13.928  1.00  0.00    -0.082 Cl
ENDBRANCH  14  16
ENDBRANCH   1  14
BRANCH   6  24
ATOM     24  N3  UNK     1      18.319   9.615 -20.288  1.00  0.00    -0.377 N 
ATOM     25  C13 UNK     1      17.668   8.785 -21.247  1.00  0.00     0.153 C 
ATOM     26  C14 UNK     1      16.543   9.637 -21.854  1.00  0.00     0.289 C 
ATOM     27  N4  UNK     1      17.186  10.625 -22.654  1.00  0.00     0.090 N 
ATOM     28  C15 UNK     1      18.178  11.397 -21.985  1.00  0.00     0.234 C 
ATOM     29  H14 UNK     1      17.565  10.134 -23.513  1.00  0.00     0.316 HD
ATOM     30  C16 UNK     1      17.708  12.858 -22.011  1.00  0.00     0.044 C 
ATOM     31  C17 UNK     1      18.526  11.005 -20.614  1.00  0.00     0.158 C 
ENDBRANCH   6  24
TORSDOF 3
