REMARK  5 active torsions:
REMARK  status: ('A' for Active; 'I' for Inactive)
REMARK    1  A    between atoms: C3_3  and  C4_4 
REMARK    2  A    between atoms: C4_4  and  O2_6 
REMARK    3  A    between atoms: O2_6  and  C5_7 
REMARK    4  A    between atoms: C5_7  and  C6_8 
REMARK    5  A    between atoms: C10_13  and  C11_14 
ROOT
ATOM      1  C1  UNK     1       1.699   3.098  -0.147  1.00  0.00     0.069 C 
ATOM      2  C2  UNK     1       0.208   2.850  -0.014  1.00  0.00     0.018 A 
ATOM      3  C3  UNK     1      -0.313   1.768  -0.532  1.00  0.00     0.052 A 
ATOM      4  C10 UNK     1      -1.762   1.493  -0.436  1.00  0.00     0.104 A 
ATOM      5  C21 UNK     1      -2.513   2.471   0.316  1.00  0.00     0.024 A 
ATOM      6  C22 UNK     1      -1.947   3.549   0.825  1.00  0.00     0.021 A 
ATOM      7  C23 UNK     1      -2.838   4.501   1.589  1.00  0.00     0.067 C 
ATOM      8  C24 UNK     1      -4.014   4.738   0.635  1.00  0.00    -0.036 C 
ATOM      9  C25 UNK     1      -3.416   4.946  -0.742  1.00  0.00     0.015 C 
ATOM     10  C26 UNK     1      -4.787   5.938   1.089  1.00  0.00     0.015 C 
ATOM     11  C27 UNK     1      -4.836   3.478   0.691  1.00  0.00     0.092 C 
ATOM     12  C28 UNK     1      -3.951   2.300   0.563  1.00  0.00     0.159 C 
ATOM     13  O6  UNK     1      -4.452   1.130   0.671  1.00  0.00    -0.293 OA
ATOM     14  N1  UNK     1      -0.559   3.811   0.696  1.00  0.00    -0.362 N 
ATOM     15  H31 UNK     1      -0.138   4.677   1.112  1.00  0.00     0.165 HD
ENDROOT
BRANCH   4  16
ATOM     16  C11 UNK     1      -2.013   0.072  -0.079  1.00  0.00     0.029 A 
ATOM     17  C12 UNK     1      -2.965  -0.644  -0.767  1.00  0.00     0.154 A 
ATOM     18  O4  UNK     1      -3.221  -1.893  -0.505  1.00  0.00    -0.321 OA
ATOM     19  C13 UNK     1      -2.576  -2.532   0.435  1.00  0.00     0.089 A 
ATOM     20  C14 UNK     1      -2.885  -3.854   0.672  1.00  0.00     0.039 A 
ATOM     21  C19 UNK     1      -1.608  -1.886   1.169  1.00  0.00     0.049 A 
ATOM     22  C15 UNK     1      -2.201  -4.518   1.663  1.00  0.00     0.009 A 
ATOM     23  C16 UNK     1      -1.215  -3.883   2.421  1.00  0.00    -0.061 A 
ATOM     24  C17 UNK     1      -0.525  -4.673   3.469  1.00  0.00     0.048 C 
ATOM     25  C18 UNK     1      -0.924  -2.551   2.161  1.00  0.00     0.025 A 
ATOM     26  C20 UNK     1      -1.317  -0.566   0.915  1.00  0.00     0.194 A 
ATOM     27  O5  UNK     1      -0.448   0.091   1.540  1.00  0.00    -0.287 OA
ENDBRANCH   4  16
BRANCH   3  28
ATOM     28  C4  UNK     1       0.551   0.782  -1.248  1.00  0.00     0.292 C 
ATOM     29  O1  UNK     1      -0.006  -0.233  -1.726  1.00  0.00    -0.259 OA
BRANCH  28  30
ATOM     30  O2  UNK     1       1.897   0.924  -1.406  1.00  0.00    -0.315 OA
BRANCH  30  31
ATOM     31  C5  UNK     1       2.754   0.033  -2.060  1.00  0.00     0.211 C 
BRANCH  31  32
ATOM     32  C6  UNK     1       2.704  -1.313  -1.360  1.00  0.00     0.145 C 
ATOM     33  C7  UNK     1       3.751  -2.197  -1.999  1.00  0.00     0.036 C 
ATOM     34  C8  UNK     1       4.999  -1.797  -1.247  1.00  0.00     0.029 C 
ATOM     35  C9  UNK     1       4.450  -1.307   0.051  1.00  0.00     0.168 C 
ATOM     36  O3  UNK     1       3.087  -1.245  -0.049  1.00  0.00    -0.384 OA
ENDBRANCH  31  32
ENDBRANCH  30  31
ENDBRANCH  28  30
ENDBRANCH   3  28
TORSDOF 5
