REMARK  5 active torsions:
REMARK  status: ('A' for Active; 'I' for Inactive)
REMARK    1  A    between atoms: C3_3  and  C4_4 
REMARK    2  A    between atoms: C4_4  and  O2_6 
REMARK    3  A    between atoms: O2_6  and  C5_7 
REMARK    4  A    between atoms: C5_7  and  C6_8 
REMARK    5  A    between atoms: C10_13  and  C11_14 
ROOT
ATOM      1  C1  UNK     1      21.096   9.128 -14.596  1.00  0.00     0.069 C 
ATOM      2  C2  UNK     1      20.008   9.774 -15.422  1.00  0.00     0.018 A 
ATOM      3  C3  UNK     1      18.961   9.066 -15.794  1.00  0.00     0.052 A 
ATOM      4  C10 UNK     1      17.837   9.604 -16.608  1.00  0.00     0.104 A 
ATOM      5  C21 UNK     1      17.994  11.026 -16.966  1.00  0.00     0.024 A 
ATOM      6  C22 UNK     1      19.040  11.726 -16.592  1.00  0.00     0.021 A 
ATOM      7  C23 UNK     1      19.192  13.145 -16.953  1.00  0.00     0.067 C 
ATOM      8  C24 UNK     1      18.090  13.794 -17.680  1.00  0.00    -0.036 C 
ATOM      9  C25 UNK     1      17.954  15.225 -17.141  1.00  0.00     0.015 C 
ATOM     10  C26 UNK     1      18.349  13.842 -19.188  1.00  0.00     0.015 C 
ATOM     11  C27 UNK     1      16.747  13.146 -17.488  1.00  0.00     0.092 C 
ATOM     12  C28 UNK     1      16.948  11.701 -17.770  1.00  0.00     0.159 C 
ATOM     13  O6  UNK     1      16.295  11.069 -18.621  1.00  0.00    -0.293 OA
ATOM     14  N1  UNK     1      20.100  11.130 -15.801  1.00  0.00    -0.362 N 
ATOM     15  H31 UNK     1      20.929  11.695 -15.508  1.00  0.00     0.165 HD
ENDROOT
BRANCH   4  16
ATOM     16  C11 UNK     1      17.714   8.808 -17.877  1.00  0.00     0.029 A 
ATOM     17  C12 UNK     1      16.506   8.366 -18.306  1.00  0.00     0.154 A 
ATOM     18  O4  UNK     1      16.398   7.663 -19.408  1.00  0.00    -0.321 OA
ATOM     19  C13 UNK     1      17.416   7.337 -20.169  1.00  0.00     0.089 A 
ATOM     20  C14 UNK     1      17.233   6.585 -21.334  1.00  0.00     0.039 A 
ATOM     21  C19 UNK     1      18.662   7.765 -19.773  1.00  0.00     0.049 A 
ATOM     22  C15 UNK     1      18.346   6.286 -22.075  1.00  0.00     0.009 A 
ATOM     23  C16 UNK     1      19.605   6.695 -21.712  1.00  0.00    -0.061 A 
ATOM     24  C17 UNK     1      20.771   6.348 -22.541  1.00  0.00     0.048 C 
ATOM     25  C18 UNK     1      19.758   7.434 -20.560  1.00  0.00     0.025 A 
ATOM     26  C20 UNK     1      18.832   8.503 -18.628  1.00  0.00     0.194 A 
ATOM     27  O5  UNK     1      19.954   8.908 -18.239  1.00  0.00    -0.287 OA
ENDBRANCH   4  16
BRANCH   3  28
ATOM     28  C4  UNK     1      18.837   7.664 -15.417  1.00  0.00     0.292 C 
ATOM     29  O1  UNK     1      17.822   6.972 -15.775  1.00  0.00    -0.259 OA
BRANCH  28  30
ATOM     30  O2  UNK     1      19.772   6.967 -14.664  1.00  0.00    -0.315 OA
BRANCH  30  31
ATOM     31  C5  UNK     1      19.594   5.609 -14.337  1.00  0.00     0.211 C 
BRANCH  31  32
ATOM     32  C6  UNK     1      20.699   5.033 -13.535  1.00  0.00     0.145 C 
ATOM     33  C7  UNK     1      20.962   5.864 -12.299  1.00  0.00     0.036 C 
ATOM     34  C8  UNK     1      22.283   5.215 -11.849  1.00  0.00     0.029 C 
ATOM     35  C9  UNK     1      22.893   4.877 -13.192  1.00  0.00     0.168 C 
ATOM     36  O3  UNK     1      21.938   5.099 -14.167  1.00  0.00    -0.384 OA
ENDBRANCH  31  32
ENDBRANCH  30  31
ENDBRANCH  28  30
ENDBRANCH   3  28
TORSDOF 5
