REMARK  7 active torsions:
REMARK  status: ('A' for Active; 'I' for Inactive)
REMARK    1  A    between atoms: C2_2  and  N1_4 
REMARK       I    between atoms: N1_4  and  C4_5 
REMARK    2  A    between atoms: C4_5  and  C5_7 
REMARK    3  A    between atoms: C5_7  and  C6_8 
REMARK    4  A    between atoms: C9_12  and  C10_13 
REMARK    5  A    between atoms: C10_13  and  N2_14 
REMARK    6  A    between atoms: N2_14  and  C11_15 
REMARK    7  A    between atoms: C15_19  and  O3_20 
ROOT
ATOM      1  C6  UNK     1       0.197   0.673   0.170  1.00  0.00     0.133 C 
ATOM      2  C7  UNK     1      -0.972  -0.283   0.119  1.00  0.00     0.067 C 
ATOM      3  C8  UNK     1      -2.041   0.492  -0.614  1.00  0.00     0.156 C 
ATOM      4  O2  UNK     1      -3.038   0.931   0.222  1.00  0.00    -0.373 OA
ATOM      5  C9  UNK     1      -3.501   2.133  -0.280  1.00  0.00     0.181 C 
ATOM      6  C15 UNK     1      -2.345   2.836  -0.917  1.00  0.00     0.180 C 
ATOM      7  C16 UNK     1      -1.290   1.740  -1.004  1.00  0.00     0.182 C 
ATOM      8  O4  UNK     1      -0.328   1.934  -0.041  1.00  0.00    -0.375 OA
ENDROOT
BRANCH   1   9
ATOM      9  C5  UNK     1       1.248   0.331  -0.866  1.00  0.00     0.134 C 
BRANCH   9  10
ATOM     10  C4  UNK     1       2.351   1.308  -0.751  1.00  0.00     0.220 C 
ATOM     11  N1  UNK     1       3.486   1.238  -1.594  1.00  0.00    -0.357 N 
ATOM     12  H8  UNK     1       3.513   0.470  -2.300  1.00  0.00     0.162 HD
ATOM     13  O1  UNK     1       2.276   2.212   0.111  1.00  0.00    -0.274 OA
BRANCH  11  14
ATOM     14  C2  UNK     1       4.589   2.189  -1.499  1.00  0.00     0.076 C 
ATOM     15  C1  UNK     1       5.825   1.411  -1.094  1.00  0.00     0.032 C 
ATOM     16  C3  UNK     1       4.828   2.878  -2.817  1.00  0.00     0.032 C 
ENDBRANCH  11  14
ENDBRANCH   9  10
ENDBRANCH   1   9
BRANCH   6  17
ATOM     17  O3  UNK     1      -1.860   3.896  -0.127  1.00  0.00    -0.390 OA
ATOM     18  H27 UNK     1      -1.776   3.554   0.798  1.00  0.00     0.210 HD
ENDBRANCH   6  17
BRANCH   5  19
ATOM     19  C10 UNK     1      -4.558   1.866  -1.328  1.00  0.00     0.304 C 
BRANCH  19  20
ATOM     20  N2  UNK     1      -5.669   1.141  -0.785  1.00  0.00     0.090 N 
ATOM     21  H18 UNK     1      -6.253   0.806  -1.586  1.00  0.00     0.316 HD
BRANCH  20  22
ATOM     22  C11 UNK     1      -6.399   1.949   0.145  1.00  0.00     0.220 C 
ATOM     23  C12 UNK     1      -6.994   3.207  -0.404  1.00  0.00     0.035 C 
ATOM     24  C13 UNK     1      -8.379   2.575  -0.316  1.00  0.00     0.004 C 
ATOM     25  C14 UNK     1      -7.787   1.423   0.451  1.00  0.00     0.035 C 
ENDBRANCH  20  22
ENDBRANCH  19  20
ENDBRANCH   5  19
TORSDOF 7
