REMARK  5 active torsions:
REMARK  status: ('A' for Active; 'I' for Inactive)
REMARK    1  A    between atoms: CAD_14  and  CAW_31 
REMARK    2  A    between atoms: CAY_32  and  OAV_30 
REMARK    3  A    between atoms: CAZ_33  and  OAV_30 
REMARK       I    between atoms: CAW_31  and  NBG_38 
REMARK    4  A    between atoms: CBA_34  and  CBB_35 
REMARK    5  A    between atoms: CBE_36  and  NBF_37 
ROOT
HETATM    1  N1  8E8 A 701      22.802   7.300   6.812  1.00 12.40    -0.338 N 
ATOM      2  H1  8E8 A 701      23.362   6.937   6.041  1.00  0.00     0.168 HD
HETATM    3  C2  8E8 A 701      23.364   7.997   7.773  1.00 13.21     0.183 A 
HETATM    4  N3  8E8 A 701      22.859   8.547   8.840  1.00 13.78    -0.337 N 
ATOM      5  H3  8E8 A 701      23.413   9.075   9.514  1.00  0.00     0.168 HD
HETATM    6  C4  8E8 A 701      21.523   8.348   8.967  1.00 13.59     0.140 A 
HETATM    7  C5  8E8 A 701      20.794   7.566   8.004  1.00 13.49     0.082 A 
HETATM    8  C6  8E8 A 701      21.457   7.068   6.860  1.00 12.52     0.116 A 
HETATM    9  NAB 8E8 A 701      20.863   6.425   5.882  1.00 12.25    -0.385 N 
ATOM     10 1HAB 8E8 A 701      21.342   6.065   5.056  1.00  0.00     0.157 HD
ATOM     11 2HAB 8E8 A 701      19.858   6.252   5.918  1.00  0.00     0.157 HD
HETATM   12  NAU 8E8 A 701      19.355   8.292   9.613  1.00 15.16    -0.295 N 
ATOM     13  HAU 8E8 A 701      18.534   8.477  10.190  1.00  0.00     0.187 HD
HETATM   14  CBB 8E8 A 701      19.377   7.594   8.495  1.00 14.48     0.076 A 
HETATM   15  NBF 8E8 A 701      20.646   8.729   9.865  1.00 15.50    -0.269 N 
ENDROOT
BRANCH  14  16
HETATM   16  CBA 8E8 A 701      18.194   6.958   7.904  1.00 15.69    -0.007 A 
HETATM   17  CAM 8E8 A 701      18.202   5.556   7.739  1.00 16.86     0.016 A 
HETATM   18  CAK 8E8 A 701      17.085   4.921   7.259  1.00 17.33     0.038 A 
HETATM   19  CAZ 8E8 A 701      15.964   5.686   6.918  1.00 17.48     0.076 A 
HETATM   20  CAL 8E8 A 701      15.963   7.102   7.137  1.00 17.38     0.038 A 
HETATM   21  CAN 8E8 A 701      17.056   7.715   7.682  1.00 17.48     0.016 A 
BRANCH  19  22
HETATM   22  OAV 8E8 A 701      14.860   5.016   6.450  1.00 18.42    -0.311 OA
BRANCH  22  23
HETATM   23  CAY 8E8 A 701      14.104   5.521   5.431  1.00 16.54     0.076 A 
HETATM   24  CAI 8E8 A 701      14.674   6.066   4.280  1.00 17.54     0.037 A 
HETATM   25  CAF 8E8 A 701      13.855   6.476   3.287  1.00 17.58     0.003 A 
HETATM   26  CAE 8E8 A 701      12.472   6.379   3.420  1.00 18.37     0.000 A 
HETATM   27  CAG 8E8 A 701      11.917   5.816   4.542  1.00 20.38     0.003 A 
HETATM   28  CAJ 8E8 A 701      12.777   5.313   5.532  1.00 18.02     0.037 A 
ENDBRANCH  22  23
ENDBRANCH  19  22
ENDBRANCH  14  16
BRANCH  15  29
HETATM   29  CBE 8E8 A 701      20.946   9.527  11.069  1.00 17.72     0.128 C 
HETATM   30  CAP 8E8 A 701      20.145   9.223  12.365  1.00 22.36     0.030 C 
HETATM   31  CAO 8E8 A 701      20.131  10.380  13.379  1.00 23.32     0.022 C 
HETATM   32  CAQ 8E8 A 701      19.734  11.709  12.627  1.00 21.53     0.126 C 
HETATM   33  NBG 8E8 A 701      20.829  11.871  11.719  1.00 21.51    -0.350 N 
HETATM   34  CAR 8E8 A 701      20.811  10.949  10.584  1.00 21.89     0.153 C 
HETATM   35  CAW 8E8 A 701      21.909  12.695  11.857  1.00 21.67     0.219 C 
HETATM   36  OAC 8E8 A 701      22.872  12.673  11.063  1.00 19.14    -0.273 OA
BRANCH  35  37
HETATM   37  CAD 8E8 A 701      21.951  13.779  12.952  1.00 21.68     0.098 C 
HETATM   38  CAA 8E8 A 701      20.980  14.963  12.492  1.00 20.77     0.014 C 
ENDBRANCH  35  37
ENDBRANCH  15  29
TORSDOF 5
